n -t * -s 0  -x 0 -y 150 -Z 0 -z 30  -v circle -c black
n -t * -s 1  -x 150 -y 150 -Z 0 -z 30  -v circle -c black
V -t * -v 1.0a5 -a 0
W -t * -x 500 -y 500
A -t * -n 1 -p 0 -o 0x7fffffff -c 30 -a 1
A -t * -h 1 -m 1073741823 -s 0
+ -t 0.000535000 -s 0 -d -1 -p AODV -e 106 -c 2 -a 0 -i 0 -k MAC 
- -t 0.000535000 -s 0 -d -1 -p AODV -e 106 -c 2 -a 0 -i 0 -k MAC
h -t 0.000535000 -s 0 -d -1 -p AODV -e 106 -c 2 -a 0 -i 0 -k MAC
r -t 0.001383500 -s 1 -d -1 -p AODV -e 48 -c 2 -a 0 -i 0 -k MAC
+ -t 0.002023500 -s 1 -d -1 -p ARP -e 86 -c 2 -a 0 -i 0 -k MAC 
- -t 0.002023500 -s 1 -d -1 -p ARP -e 86 -c 2 -a 0 -i 0 -k MAC
h -t 0.002023500 -s 1 -d -1 -p ARP -e 86 -c 2 -a 0 -i 0 -k MAC
r -t 0.002712000 -s 0 -d -1 -p ARP -e 28 -c 2 -a 0 -i 0 -k MAC
+ -t 0.003087000 -s 0 -d -1 -p ARP -e 86 -c 2 -a 0 -i 0 -k MAC 
- -t 0.003087000 -s 0 -d -1 -p ARP -e 86 -c 2 -a 0 -i 0 -k MAC
h -t 0.003087000 -s 0 -d -1 -p ARP -e 86 -c 2 -a 0 -i 0 -k MAC
r -t 0.003775500 -s 1 -d -1 -p ARP -e 28 -c 2 -a 0 -i 0 -k MAC
+ -t 0.003785500 -s 1 -d -1 -p ACK -e 38 -c 2 -a 0 -i 0 -k MAC 
- -t 0.003785500 -s 1 -d -1 -p ACK -e 38 -c 2 -a 0 -i 0 -k MAC
h -t 0.003785500 -s 1 -d -1 -p ACK -e 38 -c 2 -a 0 -i 0 -k MAC
r -t 0.004090000 -s 0 -d -1 -p ACK -e 38 -c 2 -a 0 -i 0 -k MAC
+ -t 0.004139500 -s 1 -d 0 -p AODV -e 102 -c 2 -a 0 -i 0 -k MAC 
- -t 0.004139500 -s 1 -d 0 -p AODV -e 102 -c 2 -a 0 -i 0 -k MAC
h -t 0.004139500 -s 1 -d 0 -p AODV -e 102 -c 2 -a 0 -i 0 -k MAC
r -t 0.004956000 -s 0 -d 0 -p AODV -e 44 -c 2 -a 0 -i 0 -k MAC
+ -t 0.004966000 -s 0 -d -1 -p ACK -e 38 -c 2 -a 0 -i 0 -k MAC 
- -t 0.004966000 -s 0 -d -1 -p ACK -e 38 -c 2 -a 0 -i 0 -k MAC
h -t 0.004966000 -s 0 -d -1 -p ACK -e 38 -c 2 -a 0 -i 0 -k MAC
r -t 0.005270500 -s 1 -d -1 -p ACK -e 38 -c 2 -a 0 -i 0 -k MAC
+ -t 0.005480000 -s 0 -d 1 -p cbr -e 578 -c 2 -a 0 -i 0 -k MAC 
- -t 0.005480000 -s 0 -d 1 -p cbr -e 578 -c 2 -a 0 -i 0 -k MAC
h -t 0.005480000 -s 0 -d 1 -p cbr -e 578 -c 2 -a 0 -i 0 -k MAC
r -t 0.010104500 -s 1 -d 1 -p cbr -e 520 -c 2 -a 0 -i 0 -k MAC
+ -t 0.010114500 -s 1 -d -1 -p ACK -e 38 -c 2 -a 0 -i 0 -k MAC 
- -t 0.010114500 -s 1 -d -1 -p ACK -e 38 -c 2 -a 0 -i 0 -k MAC
h -t 0.010114500 -s 1 -d -1 -p ACK -e 38 -c 2 -a 0 -i 0 -k MAC
r -t 0.010419000 -s 0 -d -1 -p ACK -e 38 -c 2 -a 0 -i 0 -k MAC
+ -t 0.010709000 -s 0 -d 1 -p cbr -e 578 -c 2 -a 0 -i 14 -k MAC 
- -t 0.010709000 -s 0 -d 1 -p cbr -e 578 -c 2 -a 0 -i 14 -k MAC
h -t 0.010709000 -s 0 -d 1 -p cbr -e 578 -c 2 -a 0 -i 14 -k MAC
d -t 0.012388636 -s 0 -d 1 -p cbr -e 520 -c 2 -a 0 -i 34 -k IFQ
d -t 0.012752273 -s 0 -d 1 -p cbr -e 520 -c 2 -a 0 -i 35 -k IFQ
d -t 0.013115909 -s 0 -d 1 -p cbr -e 520 -c 2 -a 0 -i 36 -k IFQ
d -t 0.013479545 -s 0 -d 1 -p cbr -e 520 -c 2 -a 0 -i 37 -k IFQ
d -t 0.013843182 -s 0 -d 1 -p cbr -e 520 -c 2 -a 0 -i 38 -k IFQ
d -t 0.014206818 -s 0 -d 1 -p cbr -e 520 -c 2 -a 0 -i 39 -k IFQ
d -t 0.014570455 -s 0 -d 1 -p cbr -e 520 -c 2 -a 0 -i 40 -k IFQ
d -t 0.014934091 -s 0 -d 1 -p cbr -e 520 -c 2 -a 0 -i 41 -k IFQ
d -t 0.015006000 -s 0 -d 1 -p cbr -e 520 -c 2 -a 0 -i 1 -k IFQ
d -t 0.015297727 -s 0 -d 1 -p cbr -e 520 -c 2 -a 0 -i 42 -k IFQ
r -t 0.015333500 -s 1 -d 1 -p cbr -e 520 -c 2 -a 0 -i 14 -k MAC
+ -t 0.015343500 -s 1 -d -1 -p ACK -e 38 -c 2 -a 0 -i 0 -k MAC 
- -t 0.015343500 -s 1 -d -1 -p ACK -e 38 -c 2 -a 0 -i 0 -k MAC
h -t 0.015343500 -s 1 -d -1 -p ACK -e 38 -c 2 -a 0 -i 0 -k MAC
r -t 0.015648000 -s 0 -d -1 -p ACK -e 38 -c 2 -a 0 -i 0 -k MAC
d -t 0.016025000 -s 0 -d 1 -p cbr -e 520 -c 2 -a 0 -i 44 -k IFQ
+ -t 0.016058000 -s 0 -d 1 -p cbr -e 578 -c 2 -a 0 -i 15 -k MAC 
- -t 0.016058000 -s 0 -d 1 -p cbr -e 578 -c 2 -a 0 -i 15 -k MAC
h -t 0.016058000 -s 0 -d 1 -p cbr -e 578 -c 2 -a 0 -i 15 -k MAC
d -t 0.016388636 -s 0 -d 1 -p cbr -e 520 -c 2 -a 0 -i 45 -k IFQ
d -t 0.016752273 -s 0 -d 1 -p cbr -e 520 -c 2 -a 0 -i 46 -k IFQ
d -t 0.017115909 -s 0 -d 1 -p cbr -e 520 -c 2 -a 0 -i 47 -k IFQ
d -t 0.017479545 -s 0 -d 1 -p cbr -e 520 -c 2 -a 0 -i 48 -k IFQ
d -t 0.017843182 -s 0 -d 1 -p cbr -e 520 -c 2 -a 0 -i 49 -k IFQ
d -t 0.018206818 -s 0 -d 1 -p cbr -e 520 -c 2 -a 0 -i 50 -k IFQ
d -t 0.018570455 -s 0 -d 1 -p cbr -e 520 -c 2 -a 0 -i 51 -k IFQ
d -t 0.018934091 -s 0 -d 1 -p cbr -e 520 -c 2 -a 0 -i 52 -k IFQ
d -t 0.019297727 -s 0 -d 1 -p cbr -e 520 -c 2 -a 0 -i 53 -k IFQ
d -t 0.019661364 -s 0 -d 1 -p cbr -e 520 -c 2 -a 0 -i 54 -k IFQ
d -t 0.020025000 -s 0 -d 1 -p cbr -e 520 -c 2 -a 0 -i 55 -k IFQ
d -t 0.020388636 -s 0 -d 1 -p cbr -e 520 -c 2 -a 0 -i 56 -k IFQ
r -t 0.020682500 -s 1 -d 1 -p cbr -e 520 -c 2 -a 0 -i 15 -k MAC
+ -t 0.020692500 -s 1 -d -1 -p ACK -e 38 -c 2 -a 0 -i 0 -k MAC 
- -t 0.020692500 -s 1 -d -1 -p ACK -e 38 -c 2 -a 0 -i 0 -k MAC
h -t 0.020692500 -s 1 -d -1 -p ACK -e 38 -c 2 -a 0 -i 0 -k MAC
d -t 0.020752273 -s 0 -d 1 -p cbr -e 520 -c 2 -a 0 -i 57 -k IFQ
r -t 0.020997000 -s 0 -d -1 -p ACK -e 38 -c 2 -a 0 -i 0 -k MAC
+ -t 0.021307000 -s 0 -d 1 -p cbr -e 578 -c 2 -a 0 -i 16 -k MAC 
- -t 0.021307000 -s 0 -d 1 -p cbr -e 578 -c 2 -a 0 -i 16 -k MAC
h -t 0.021307000 -s 0 -d 1 -p cbr -e 578 -c 2 -a 0 -i 16 -k MAC
d -t 0.021479545 -s 0 -d 1 -p cbr -e 520 -c 2 -a 0 -i 59 -k IFQ
d -t 0.021843182 -s 0 -d 1 -p cbr -e 520 -c 2 -a 0 -i 60 -k IFQ
d -t 0.022206818 -s 0 -d 1 -p cbr -e 520 -c 2 -a 0 -i 61 -k IFQ
d -t 0.022570455 -s 0 -d 1 -p cbr -e 520 -c 2 -a 0 -i 62 -k IFQ
d -t 0.022934091 -s 0 -d 1 -p cbr -e 520 -c 2 -a 0 -i 63 -k IFQ
d -t 0.023297727 -s 0 -d 1 -p cbr -e 520 -c 2 -a 0 -i 64 -k IFQ
d -t 0.023661364 -s 0 -d 1 -p cbr -e 520 -c 2 -a 0 -i 65 -k IFQ
d -t 0.024025000 -s 0 -d 1 -p cbr -e 520 -c 2 -a 0 -i 66 -k IFQ
d -t 0.024388636 -s 0 -d 1 -p cbr -e 520 -c 2 -a 0 -i 67 -k IFQ
d -t 0.024752273 -s 0 -d 1 -p cbr -e 520 -c 2 -a 0 -i 68 -k IFQ
d -t 0.025006000 -s 0 -d 1 -p cbr -e 520 -c 2 -a 0 -i 2 -k IFQ
d -t 0.025115909 -s 0 -d 1 -p cbr -e 520 -c 2 -a 0 -i 69 -k IFQ
d -t 0.025479545 -s 0 -d 1 -p cbr -e 520 -c 2 -a 0 -i 70 -k IFQ
d -t 0.025843182 -s 0 -d 1 -p cbr -e 520 -c 2 -a 0 -i 71 -k IFQ
r -t 0.025931500 -s 1 -d 1 -p cbr -e 520 -c 2 -a 0 -i 16 -k MAC
+ -t 0.025941500 -s 1 -d -1 -p ACK -e 38 -c 2 -a 0 -i 0 -k MAC 
- -t 0.025941500 -s 1 -d -1 -p ACK -e 38 -c 2 -a 0 -i 0 -k MAC
h -t 0.025941500 -s 1 -d -1 -p ACK -e 38 -c 2 -a 0 -i 0 -k MAC
d -t 0.026206818 -s 0 -d 1 -p cbr -e 520 -c 2 -a 0 -i 72 -k IFQ
r -t 0.026246000 -s 0 -d -1 -p ACK -e 38 -c 2 -a 0 -i 0 -k MAC
+ -t 0.026536000 -s 0 -d 1 -p cbr -e 578 -c 2 -a 0 -i 17 -k MAC 
- -t 0.026536000 -s 0 -d 1 -p cbr -e 578 -c 2 -a 0 -i 17 -k MAC
h -t 0.026536000 -s 0 -d 1 -p cbr -e 578 -c 2 -a 0 -i 17 -k MAC
d -t 0.026934091 -s 0 -d 1 -p cbr -e 520 -c 2 -a 0 -i 74 -k IFQ
d -t 0.027297727 -s 0 -d 1 -p cbr -e 520 -c 2 -a 0 -i 75 -k IFQ
d -t 0.027661364 -s 0 -d 1 -p cbr -e 520 -c 2 -a 0 -i 76 -k IFQ
d -t 0.028025000 -s 0 -d 1 -p cbr -e 520 -c 2 -a 0 -i 77 -k IFQ
d -t 0.028388636 -s 0 -d 1 -p cbr -e 520 -c 2 -a 0 -i 78 -k IFQ
d -t 0.028752273 -s 0 -d 1 -p cbr -e 520 -c 2 -a 0 -i 79 -k IFQ
d -t 0.029115909 -s 0 -d 1 -p cbr -e 520 -c 2 -a 0 -i 80 -k IFQ
d -t 0.029479545 -s 0 -d 1 -p cbr -e 520 -c 2 -a 0 -i 81 -k IFQ
d -t 0.029843182 -s 0 -d 1 -p cbr -e 520 -c 2 -a 0 -i 82 -k IFQ
d -t 0.030206818 -s 0 -d 1 -p cbr -e 520 -c 2 -a 0 -i 83 -k IFQ
d -t 0.030570455 -s 0 -d 1 -p cbr -e 520 -c 2 -a 0 -i 84 -k IFQ
d -t 0.030934091 -s 0 -d 1 -p cbr -e 520 -c 2 -a 0 -i 85 -k IFQ
r -t 0.031160500 -s 1 -d 1 -p cbr -e 520 -c 2 -a 0 -i 17 -k MAC
+ -t 0.031170500 -s 1 -d -1 -p ACK -e 38 -c 2 -a 0 -i 0 -k MAC 
- -t 0.031170500 -s 1 -d -1 -p ACK -e 38 -c 2 -a 0 -i 0 -k MAC
h -t 0.031170500 -s 1 -d -1 -p ACK -e 38 -c 2 -a 0 -i 0 -k MAC
d -t 0.031297727 -s 0 -d 1 -p cbr -e 520 -c 2 -a 0 -i 86 -k IFQ
r -t 0.031475000 -s 0 -d -1 -p ACK -e 38 -c 2 -a 0 -i 0 -k MAC
+ -t 0.031565000 -s 0 -d 1 -p cbr -e 578 -c 2 -a 0 -i 18 -k MAC 
- -t 0.031565000 -s 0 -d 1 -p cbr -e 578 -c 2 -a 0 -i 18 -k MAC
h -t 0.031565000 -s 0 -d 1 -p cbr -e 578 -c 2 -a 0 -i 18 -k MAC
d -t 0.032025000 -s 0 -d 1 -p cbr -e 520 -c 2 -a 0 -i 88 -k IFQ
d -t 0.032388636 -s 0 -d 1 -p cbr -e 520 -c 2 -a 0 -i 89 -k IFQ
d -t 0.032752273 -s 0 -d 1 -p cbr -e 520 -c 2 -a 0 -i 90 -k IFQ
d -t 0.033115909 -s 0 -d 1 -p cbr -e 520 -c 2 -a 0 -i 91 -k IFQ
d -t 0.033479545 -s 0 -d 1 -p cbr -e 520 -c 2 -a 0 -i 92 -k IFQ
d -t 0.033843182 -s 0 -d 1 -p cbr -e 520 -c 2 -a 0 -i 93 -k IFQ
d -t 0.034206818 -s 0 -d 1 -p cbr -e 520 -c 2 -a 0 -i 94 -k IFQ
d -t 0.034570455 -s 0 -d 1 -p cbr -e 520 -c 2 -a 0 -i 95 -k IFQ
d -t 0.034934091 -s 0 -d 1 -p cbr -e 520 -c 2 -a 0 -i 96 -k IFQ
d -t 0.035006000 -s 0 -d 1 -p cbr -e 520 -c 2 -a 0 -i 3 -k IFQ
d -t 0.035297727 -s 0 -d 1 -p cbr -e 520 -c 2 -a 0 -i 97 -k IFQ
d -t 0.035661364 -s 0 -d 1 -p cbr -e 520 -c 2 -a 0 -i 98 -k IFQ
d -t 0.036025000 -s 0 -d 1 -p cbr -e 520 -c 2 -a 0 -i 99 -k IFQ
r -t 0.036189500 -s 1 -d 1 -p cbr -e 520 -c 2 -a 0 -i 18 -k MAC
+ -t 0.036199500 -s 1 -d -1 -p ACK -e 38 -c 2 -a 0 -i 0 -k MAC 
- -t 0.036199500 -s 1 -d -1 -p ACK -e 38 -c 2 -a 0 -i 0 -k MAC
h -t 0.036199500 -s 1 -d -1 -p ACK -e 38 -c 2 -a 0 -i 0 -k MAC
d -t 0.036388636 -s 0 -d 1 -p cbr -e 520 -c 2 -a 0 -i 100 -k IFQ
r -t 0.036504000 -s 0 -d -1 -p ACK -e 38 -c 2 -a 0 -i 0 -k MAC
+ -t 0.037094000 -s 0 -d 1 -p cbr -e 578 -c 2 -a 0 -i 19 -k MAC 
- -t 0.037094000 -s 0 -d 1 -p cbr -e 578 -c 2 -a 0 -i 19 -k MAC
h -t 0.037094000 -s 0 -d 1 -p cbr -e 578 -c 2 -a 0 -i 19 -k MAC
d -t 0.037115909 -s 0 -d 1 -p cbr -e 520 -c 2 -a 0 -i 102 -k IFQ
d -t 0.037479545 -s 0 -d 1 -p cbr -e 520 -c 2 -a 0 -i 103 -k IFQ
d -t 0.037843182 -s 0 -d 1 -p cbr -e 520 -c 2 -a 0 -i 104 -k IFQ
d -t 0.038206818 -s 0 -d 1 -p cbr -e 520 -c 2 -a 0 -i 105 -k IFQ
d -t 0.038570455 -s 0 -d 1 -p cbr -e 520 -c 2 -a 0 -i 106 -k IFQ
d -t 0.038934091 -s 0 -d 1 -p cbr -e 520 -c 2 -a 0 -i 107 -k IFQ
d -t 0.039297727 -s 0 -d 1 -p cbr -e 520 -c 2 -a 0 -i 108 -k IFQ
d -t 0.039661364 -s 0 -d 1 -p cbr -e 520 -c 2 -a 0 -i 109 -k IFQ
d -t 0.040025000 -s 0 -d 1 -p cbr -e 520 -c 2 -a 0 -i 110 -k IFQ
d -t 0.040388636 -s 0 -d 1 -p cbr -e 520 -c 2 -a 0 -i 111 -k IFQ
d -t 0.040752273 -s 0 -d 1 -p cbr -e 520 -c 2 -a 0 -i 112 -k IFQ
d -t 0.041115909 -s 0 -d 1 -p cbr -e 520 -c 2 -a 0 -i 113 -k IFQ
d -t 0.041479545 -s 0 -d 1 -p cbr -e 520 -c 2 -a 0 -i 114 -k IFQ
r -t 0.041718500 -s 1 -d 1 -p cbr -e 520 -c 2 -a 0 -i 19 -k MAC
+ -t 0.041728500 -s 1 -d -1 -p ACK -e 38 -c 2 -a 0 -i 0 -k MAC 
- -t 0.041728500 -s 1 -d -1 -p ACK -e 38 -c 2 -a 0 -i 0 -k MAC
h -t 0.041728500 -s 1 -d -1 -p ACK -e 38 -c 2 -a 0 -i 0 -k MAC
d -t 0.041843182 -s 0 -d 1 -p cbr -e 520 -c 2 -a 0 -i 115 -k IFQ
r -t 0.042033000 -s 0 -d -1 -p ACK -e 38 -c 2 -a 0 -i 0 -k MAC
+ -t 0.042243000 -s 0 -d 1 -p cbr -e 578 -c 2 -a 0 -i 20 -k MAC 
- -t 0.042243000 -s 0 -d 1 -p cbr -e 578 -c 2 -a 0 -i 20 -k MAC
h -t 0.042243000 -s 0 -d 1 -p cbr -e 578 -c 2 -a 0 -i 20 -k MAC
d -t 0.042570455 -s 0 -d 1 -p cbr -e 520 -c 2 -a 0 -i 117 -k IFQ
d -t 0.042934091 -s 0 -d 1 -p cbr -e 520 -c 2 -a 0 -i 118 -k IFQ
d -t 0.043297727 -s 0 -d 1 -p cbr -e 520 -c 2 -a 0 -i 119 -k IFQ
d -t 0.043661364 -s 0 -d 1 -p cbr -e 520 -c 2 -a 0 -i 120 -k IFQ
d -t 0.044025000 -s 0 -d 1 -p cbr -e 520 -c 2 -a 0 -i 121 -k IFQ
d -t 0.044388636 -s 0 -d 1 -p cbr -e 520 -c 2 -a 0 -i 122 -k IFQ
d -t 0.044752273 -s 0 -d 1 -p cbr -e 520 -c 2 -a 0 -i 123 -k IFQ
d -t 0.045006000 -s 0 -d 1 -p cbr -e 520 -c 2 -a 0 -i 4 -k IFQ
d -t 0.045115909 -s 0 -d 1 -p cbr -e 520 -c 2 -a 0 -i 124 -k IFQ
d -t 0.045479545 -s 0 -d 1 -p cbr -e 520 -c 2 -a 0 -i 125 -k IFQ
d -t 0.045843182 -s 0 -d 1 -p cbr -e 520 -c 2 -a 0 -i 126 -k IFQ
d -t 0.046206818 -s 0 -d 1 -p cbr -e 520 -c 2 -a 0 -i 127 -k IFQ
d -t 0.046570455 -s 0 -d 1 -p cbr -e 520 -c 2 -a 0 -i 128 -k IFQ
r -t 0.046867500 -s 1 -d 1 -p cbr -e 520 -c 2 -a 0 -i 20 -k MAC
+ -t 0.046877500 -s 1 -d -1 -p ACK -e 38 -c 2 -a 0 -i 0 -k MAC 
- -t 0.046877500 -s 1 -d -1 -p ACK -e 38 -c 2 -a 0 -i 0 -k MAC
h -t 0.046877500 -s 1 -d -1 -p ACK -e 38 -c 2 -a 0 -i 0 -k MAC
d -t 0.046934091 -s 0 -d 1 -p cbr -e 520 -c 2 -a 0 -i 129 -k IFQ
r -t 0.047182000 -s 0 -d -1 -p ACK -e 38 -c 2 -a 0 -i 0 -k MAC
+ -t 0.047592000 -s 0 -d 1 -p cbr -e 578 -c 2 -a 0 -i 21 -k MAC 
- -t 0.047592000 -s 0 -d 1 -p cbr -e 578 -c 2 -a 0 -i 21 -k MAC
h -t 0.047592000 -s 0 -d 1 -p cbr -e 578 -c 2 -a 0 -i 21 -k MAC
d -t 0.047661364 -s 0 -d 1 -p cbr -e 520 -c 2 -a 0 -i 131 -k IFQ
d -t 0.048025000 -s 0 -d 1 -p cbr -e 520 -c 2 -a 0 -i 132 -k IFQ
d -t 0.048388636 -s 0 -d 1 -p cbr -e 520 -c 2 -a 0 -i 133 -k IFQ
d -t 0.048752273 -s 0 -d 1 -p cbr -e 520 -c 2 -a 0 -i 134 -k IFQ
d -t 0.049115909 -s 0 -d 1 -p cbr -e 520 -c 2 -a 0 -i 135 -k IFQ
d -t 0.049479545 -s 0 -d 1 -p cbr -e 520 -c 2 -a 0 -i 136 -k IFQ
d -t 0.049843182 -s 0 -d 1 -p cbr -e 520 -c 2 -a 0 -i 137 -k IFQ
d -t 0.050206818 -s 0 -d 1 -p cbr -e 520 -c 2 -a 0 -i 138 -k IFQ
d -t 0.050570455 -s 0 -d 1 -p cbr -e 520 -c 2 -a 0 -i 139 -k IFQ
d -t 0.050934091 -s 0 -d 1 -p cbr -e 520 -c 2 -a 0 -i 140 -k IFQ
d -t 0.051297727 -s 0 -d 1 -p cbr -e 520 -c 2 -a 0 -i 141 -k IFQ
d -t 0.051661364 -s 0 -d 1 -p cbr -e 520 -c 2 -a 0 -i 142 -k IFQ
d -t 0.052025000 -s 0 -d 1 -p cbr -e 520 -c 2 -a 0 -i 143 -k IFQ
r -t 0.052216500 -s 1 -d 1 -p cbr -e 520 -c 2 -a 0 -i 21 -k MAC
+ -t 0.052226500 -s 1 -d -1 -p ACK -e 38 -c 2 -a 0 -i 0 -k MAC 
- -t 0.052226500 -s 1 -d -1 -p ACK -e 38 -c 2 -a 0 -i 0 -k MAC
h -t 0.052226500 -s 1 -d -1 -p ACK -e 38 -c 2 -a 0 -i 0 -k MAC
d -t 0.052388636 -s 0 -d 1 -p cbr -e 520 -c 2 -a 0 -i 144 -k IFQ
r -t 0.052531000 -s 0 -d -1 -p ACK -e 38 -c 2 -a 0 -i 0 -k MAC
+ -t 0.052821000 -s 0 -d 1 -p cbr -e 578 -c 2 -a 0 -i 22 -k MAC 
- -t 0.052821000 -s 0 -d 1 -p cbr -e 578 -c 2 -a 0 -i 22 -k MAC
h -t 0.052821000 -s 0 -d 1 -p cbr -e 578 -c 2 -a 0 -i 22 -k MAC
d -t 0.053115909 -s 0 -d 1 -p cbr -e 520 -c 2 -a 0 -i 146 -k IFQ
d -t 0.053479545 -s 0 -d 1 -p cbr -e 520 -c 2 -a 0 -i 147 -k IFQ
d -t 0.053843182 -s 0 -d 1 -p cbr -e 520 -c 2 -a 0 -i 148 -k IFQ
d -t 0.054206818 -s 0 -d 1 -p cbr -e 520 -c 2 -a 0 -i 149 -k IFQ
d -t 0.054570455 -s 0 -d 1 -p cbr -e 520 -c 2 -a 0 -i 150 -k IFQ
d -t 0.054934091 -s 0 -d 1 -p cbr -e 520 -c 2 -a 0 -i 151 -k IFQ
d -t 0.055006000 -s 0 -d 1 -p cbr -e 520 -c 2 -a 0 -i 5 -k IFQ
d -t 0.055297727 -s 0 -d 1 -p cbr -e 520 -c 2 -a 0 -i 152 -k IFQ
d -t 0.055661364 -s 0 -d 1 -p cbr -e 520 -c 2 -a 0 -i 153 -k IFQ
d -t 0.056025000 -s 0 -d 1 -p cbr -e 520 -c 2 -a 0 -i 154 -k IFQ
d -t 0.056388636 -s 0 -d 1 -p cbr -e 520 -c 2 -a 0 -i 155 -k IFQ
d -t 0.056752273 -s 0 -d 1 -p cbr -e 520 -c 2 -a 0 -i 156 -k IFQ
d -t 0.057115909 -s 0 -d 1 -p cbr -e 520 -c 2 -a 0 -i 157 -k IFQ
r -t 0.057445500 -s 1 -d 1 -p cbr -e 520 -c 2 -a 0 -i 22 -k MAC
+ -t 0.057455500 -s 1 -d -1 -p ACK -e 38 -c 2 -a 0 -i 0 -k MAC 
- -t 0.057455500 -s 1 -d -1 -p ACK -e 38 -c 2 -a 0 -i 0 -k MAC
h -t 0.057455500 -s 1 -d -1 -p ACK -e 38 -c 2 -a 0 -i 0 -k MAC
d -t 0.057479545 -s 0 -d 1 -p cbr -e 520 -c 2 -a 0 -i 158 -k IFQ
r -t 0.057760000 -s 0 -d -1 -p ACK -e 38 -c 2 -a 0 -i 0 -k MAC
+ -t 0.057970000 -s 0 -d 1 -p cbr -e 578 -c 2 -a 0 -i 23 -k MAC 
- -t 0.057970000 -s 0 -d 1 -p cbr -e 578 -c 2 -a 0 -i 23 -k MAC
h -t 0.057970000 -s 0 -d 1 -p cbr -e 578 -c 2 -a 0 -i 23 -k MAC
d -t 0.058206818 -s 0 -d 1 -p cbr -e 520 -c 2 -a 0 -i 160 -k IFQ
d -t 0.058570455 -s 0 -d 1 -p cbr -e 520 -c 2 -a 0 -i 161 -k IFQ
d -t 0.058934091 -s 0 -d 1 -p cbr -e 520 -c 2 -a 0 -i 162 -k IFQ
d -t 0.059297727 -s 0 -d 1 -p cbr -e 520 -c 2 -a 0 -i 163 -k IFQ
d -t 0.059661364 -s 0 -d 1 -p cbr -e 520 -c 2 -a 0 -i 164 -k IFQ
d -t 0.060025000 -s 0 -d 1 -p cbr -e 520 -c 2 -a 0 -i 165 -k IFQ
d -t 0.060388636 -s 0 -d 1 -p cbr -e 520 -c 2 -a 0 -i 166 -k IFQ
d -t 0.060752273 -s 0 -d 1 -p cbr -e 520 -c 2 -a 0 -i 167 -k IFQ
d -t 0.061115909 -s 0 -d 1 -p cbr -e 520 -c 2 -a 0 -i 168 -k IFQ
d -t 0.061479545 -s 0 -d 1 -p cbr -e 520 -c 2 -a 0 -i 169 -k IFQ
d -t 0.061843182 -s 0 -d 1 -p cbr -e 520 -c 2 -a 0 -i 170 -k IFQ
d -t 0.062206818 -s 0 -d 1 -p cbr -e 520 -c 2 -a 0 -i 171 -k IFQ
d -t 0.062570455 -s 0 -d 1 -p cbr -e 520 -c 2 -a 0 -i 172 -k IFQ
r -t 0.062594500 -s 1 -d 1 -p cbr -e 520 -c 2 -a 0 -i 23 -k MAC
+ -t 0.062604500 -s 1 -d -1 -p ACK -e 38 -c 2 -a 0 -i 0 -k MAC 
- -t 0.062604500 -s 1 -d -1 -p ACK -e 38 -c 2 -a 0 -i 0 -k MAC
h -t 0.062604500 -s 1 -d -1 -p ACK -e 38 -c 2 -a 0 -i 0 -k MAC
r -t 0.062909000 -s 0 -d -1 -p ACK -e 38 -c 2 -a 0 -i 0 -k MAC
d -t 0.063297727 -s 0 -d 1 -p cbr -e 520 -c 2 -a 0 -i 174 -k IFQ
+ -t 0.063439000 -s 0 -d 1 -p cbr -e 578 -c 2 -a 0 -i 24 -k MAC 
- -t 0.063439000 -s 0 -d 1 -p cbr -e 578 -c 2 -a 0 -i 24 -k MAC
h -t 0.063439000 -s 0 -d 1 -p cbr -e 578 -c 2 -a 0 -i 24 -k MAC
d -t 0.063661364 -s 0 -d 1 -p cbr -e 520 -c 2 -a 0 -i 175 -k IFQ
d -t 0.064025000 -s 0 -d 1 -p cbr -e 520 -c 2 -a 0 -i 176 -k IFQ
d -t 0.064388636 -s 0 -d 1 -p cbr -e 520 -c 2 -a 0 -i 177 -k IFQ
d -t 0.064752273 -s 0 -d 1 -p cbr -e 520 -c 2 -a 0 -i 178 -k IFQ
d -t 0.065006000 -s 0 -d 1 -p cbr -e 520 -c 2 -a 0 -i 6 -k IFQ
d -t 0.065115909 -s 0 -d 1 -p cbr -e 520 -c 2 -a 0 -i 179 -k IFQ
d -t 0.065479545 -s 0 -d 1 -p cbr -e 520 -c 2 -a 0 -i 180 -k IFQ
d -t 0.065843182 -s 0 -d 1 -p cbr -e 520 -c 2 -a 0 -i 181 -k IFQ
d -t 0.066206818 -s 0 -d 1 -p cbr -e 520 -c 2 -a 0 -i 182 -k IFQ
d -t 0.066570455 -s 0 -d 1 -p cbr -e 520 -c 2 -a 0 -i 183 -k IFQ
d -t 0.066934091 -s 0 -d 1 -p cbr -e 520 -c 2 -a 0 -i 184 -k IFQ
d -t 0.067297727 -s 0 -d 1 -p cbr -e 520 -c 2 -a 0 -i 185 -k IFQ
d -t 0.067661364 -s 0 -d 1 -p cbr -e 520 -c 2 -a 0 -i 186 -k IFQ
d -t 0.068025000 -s 0 -d 1 -p cbr -e 520 -c 2 -a 0 -i 187 -k IFQ
r -t 0.068063500 -s 1 -d 1 -p cbr -e 520 -c 2 -a 0 -i 24 -k MAC
+ -t 0.068073500 -s 1 -d -1 -p ACK -e 38 -c 2 -a 0 -i 0 -k MAC 
- -t 0.068073500 -s 1 -d -1 -p ACK -e 38 -c 2 -a 0 -i 0 -k MAC
h -t 0.068073500 -s 1 -d -1 -p ACK -e 38 -c 2 -a 0 -i 0 -k MAC
r -t 0.068378000 -s 0 -d -1 -p ACK -e 38 -c 2 -a 0 -i 0 -k MAC
d -t 0.068752273 -s 0 -d 1 -p cbr -e 520 -c 2 -a 0 -i 189 -k IFQ
+ -t 0.068768000 -s 0 -d 1 -p cbr -e 578 -c 2 -a 0 -i 25 -k MAC 
- -t 0.068768000 -s 0 -d 1 -p cbr -e 578 -c 2 -a 0 -i 25 -k MAC
h -t 0.068768000 -s 0 -d 1 -p cbr -e 578 -c 2 -a 0 -i 25 -k MAC
d -t 0.069115909 -s 0 -d 1 -p cbr -e 520 -c 2 -a 0 -i 190 -k IFQ
d -t 0.069479545 -s 0 -d 1 -p cbr -e 520 -c 2 -a 0 -i 191 -k IFQ
d -t 0.069843182 -s 0 -d 1 -p cbr -e 520 -c 2 -a 0 -i 192 -k IFQ
d -t 0.070206818 -s 0 -d 1 -p cbr -e 520 -c 2 -a 0 -i 193 -k IFQ
d -t 0.070570455 -s 0 -d 1 -p cbr -e 520 -c 2 -a 0 -i 194 -k IFQ
d -t 0.070934091 -s 0 -d 1 -p cbr -e 520 -c 2 -a 0 -i 195 -k IFQ
d -t 0.071297727 -s 0 -d 1 -p cbr -e 520 -c 2 -a 0 -i 196 -k IFQ
d -t 0.071661364 -s 0 -d 1 -p cbr -e 520 -c 2 -a 0 -i 197 -k IFQ
d -t 0.072025000 -s 0 -d 1 -p cbr -e 520 -c 2 -a 0 -i 198 -k IFQ
d -t 0.072388636 -s 0 -d 1 -p cbr -e 520 -c 2 -a 0 -i 199 -k IFQ
d -t 0.072752273 -s 0 -d 1 -p cbr -e 520 -c 2 -a 0 -i 200 -k IFQ
d -t 0.073115909 -s 0 -d 1 -p cbr -e 520 -c 2 -a 0 -i 201 -k IFQ
r -t 0.073392500 -s 1 -d 1 -p cbr -e 520 -c 2 -a 0 -i 25 -k MAC
+ -t 0.073402500 -s 1 -d -1 -p ACK -e 38 -c 2 -a 0 -i 0 -k MAC 
- -t 0.073402500 -s 1 -d -1 -p ACK -e 38 -c 2 -a 0 -i 0 -k MAC
h -t 0.073402500 -s 1 -d -1 -p ACK -e 38 -c 2 -a 0 -i 0 -k MAC
d -t 0.073479545 -s 0 -d 1 -p cbr -e 520 -c 2 -a 0 -i 202 -k IFQ
r -t 0.073707000 -s 0 -d -1 -p ACK -e 38 -c 2 -a 0 -i 0 -k MAC
+ -t 0.074077000 -s 0 -d 1 -p cbr -e 578 -c 2 -a 0 -i 26 -k MAC 
- -t 0.074077000 -s 0 -d 1 -p cbr -e 578 -c 2 -a 0 -i 26 -k MAC
h -t 0.074077000 -s 0 -d 1 -p cbr -e 578 -c 2 -a 0 -i 26 -k MAC
d -t 0.074206818 -s 0 -d 1 -p cbr -e 520 -c 2 -a 0 -i 204 -k IFQ
d -t 0.074570455 -s 0 -d 1 -p cbr -e 520 -c 2 -a 0 -i 205 -k IFQ
d -t 0.074934091 -s 0 -d 1 -p cbr -e 520 -c 2 -a 0 -i 206 -k IFQ
d -t 0.075006000 -s 0 -d 1 -p cbr -e 520 -c 2 -a 0 -i 7 -k IFQ
d -t 0.075297727 -s 0 -d 1 -p cbr -e 520 -c 2 -a 0 -i 207 -k IFQ
d -t 0.075661364 -s 0 -d 1 -p cbr -e 520 -c 2 -a 0 -i 208 -k IFQ
d -t 0.076025000 -s 0 -d 1 -p cbr -e 520 -c 2 -a 0 -i 209 -k IFQ
d -t 0.076388636 -s 0 -d 1 -p cbr -e 520 -c 2 -a 0 -i 210 -k IFQ
d -t 0.076752273 -s 0 -d 1 -p cbr -e 520 -c 2 -a 0 -i 211 -k IFQ
d -t 0.077115909 -s 0 -d 1 -p cbr -e 520 -c 2 -a 0 -i 212 -k IFQ
d -t 0.077479545 -s 0 -d 1 -p cbr -e 520 -c 2 -a 0 -i 213 -k IFQ
d -t 0.077843182 -s 0 -d 1 -p cbr -e 520 -c 2 -a 0 -i 214 -k IFQ
d -t 0.078206818 -s 0 -d 1 -p cbr -e 520 -c 2 -a 0 -i 215 -k IFQ
d -t 0.078570455 -s 0 -d 1 -p cbr -e 520 -c 2 -a 0 -i 216 -k IFQ
r -t 0.078701500 -s 1 -d 1 -p cbr -e 520 -c 2 -a 0 -i 26 -k MAC
+ -t 0.078711500 -s 1 -d -1 -p ACK -e 38 -c 2 -a 0 -i 0 -k MAC 
- -t 0.078711500 -s 1 -d -1 -p ACK -e 38 -c 2 -a 0 -i 0 -k MAC
h -t 0.078711500 -s 1 -d -1 -p ACK -e 38 -c 2 -a 0 -i 0 -k MAC
d -t 0.078934091 -s 0 -d 1 -p cbr -e 520 -c 2 -a 0 -i 217 -k IFQ
r -t 0.079016000 -s 0 -d -1 -p ACK -e 38 -c 2 -a 0 -i 0 -k MAC
+ -t 0.079266000 -s 0 -d 1 -p cbr -e 578 -c 2 -a 0 -i 27 -k MAC 
- -t 0.079266000 -s 0 -d 1 -p cbr -e 578 -c 2 -a 0 -i 27 -k MAC
h -t 0.079266000 -s 0 -d 1 -p cbr -e 578 -c 2 -a 0 -i 27 -k MAC
d -t 0.079661364 -s 0 -d 1 -p cbr -e 520 -c 2 -a 0 -i 219 -k IFQ
d -t 0.080025000 -s 0 -d 1 -p cbr -e 520 -c 2 -a 0 -i 220 -k IFQ
d -t 0.080388636 -s 0 -d 1 -p cbr -e 520 -c 2 -a 0 -i 221 -k IFQ
d -t 0.080752273 -s 0 -d 1 -p cbr -e 520 -c 2 -a 0 -i 222 -k IFQ
d -t 0.081115909 -s 0 -d 1 -p cbr -e 520 -c 2 -a 0 -i 223 -k IFQ
d -t 0.081479545 -s 0 -d 1 -p cbr -e 520 -c 2 -a 0 -i 224 -k IFQ
d -t 0.081843182 -s 0 -d 1 -p cbr -e 520 -c 2 -a 0 -i 225 -k IFQ
d -t 0.082206818 -s 0 -d 1 -p cbr -e 520 -c 2 -a 0 -i 226 -k IFQ
d -t 0.082570455 -s 0 -d 1 -p cbr -e 520 -c 2 -a 0 -i 227 -k IFQ
d -t 0.082934091 -s 0 -d 1 -p cbr -e 520 -c 2 -a 0 -i 228 -k IFQ
d -t 0.083297727 -s 0 -d 1 -p cbr -e 520 -c 2 -a 0 -i 229 -k IFQ
d -t 0.083661364 -s 0 -d 1 -p cbr -e 520 -c 2 -a 0 -i 230 -k IFQ
r -t 0.083890500 -s 1 -d 1 -p cbr -e 520 -c 2 -a 0 -i 27 -k MAC
+ -t 0.083900500 -s 1 -d -1 -p ACK -e 38 -c 2 -a 0 -i 0 -k MAC 
- -t 0.083900500 -s 1 -d -1 -p ACK -e 38 -c 2 -a 0 -i 0 -k MAC
h -t 0.083900500 -s 1 -d -1 -p ACK -e 38 -c 2 -a 0 -i 0 -k MAC
d -t 0.084025000 -s 0 -d 1 -p cbr -e 520 -c 2 -a 0 -i 231 -k IFQ
r -t 0.084205000 -s 0 -d -1 -p ACK -e 38 -c 2 -a 0 -i 0 -k MAC
+ -t 0.084475000 -s 0 -d 1 -p cbr -e 578 -c 2 -a 0 -i 28 -k MAC 
- -t 0.084475000 -s 0 -d 1 -p cbr -e 578 -c 2 -a 0 -i 28 -k MAC
h -t 0.084475000 -s 0 -d 1 -p cbr -e 578 -c 2 -a 0 -i 28 -k MAC
d -t 0.084752273 -s 0 -d 1 -p cbr -e 520 -c 2 -a 0 -i 233 -k IFQ
d -t 0.085006000 -s 0 -d 1 -p cbr -e 520 -c 2 -a 0 -i 8 -k IFQ
d -t 0.085115909 -s 0 -d 1 -p cbr -e 520 -c 2 -a 0 -i 234 -k IFQ
d -t 0.085479545 -s 0 -d 1 -p cbr -e 520 -c 2 -a 0 -i 235 -k IFQ
d -t 0.085843182 -s 0 -d 1 -p cbr -e 520 -c 2 -a 0 -i 236 -k IFQ
d -t 0.086206818 -s 0 -d 1 -p cbr -e 520 -c 2 -a 0 -i 237 -k IFQ
d -t 0.086570455 -s 0 -d 1 -p cbr -e 520 -c 2 -a 0 -i 238 -k IFQ
d -t 0.086934091 -s 0 -d 1 -p cbr -e 520 -c 2 -a 0 -i 239 -k IFQ
d -t 0.087297727 -s 0 -d 1 -p cbr -e 520 -c 2 -a 0 -i 240 -k IFQ
d -t 0.087661364 -s 0 -d 1 -p cbr -e 520 -c 2 -a 0 -i 241 -k IFQ
d -t 0.088025000 -s 0 -d 1 -p cbr -e 520 -c 2 -a 0 -i 242 -k IFQ
d -t 0.088388636 -s 0 -d 1 -p cbr -e 520 -c 2 -a 0 -i 243 -k IFQ
d -t 0.088752273 -s 0 -d 1 -p cbr -e 520 -c 2 -a 0 -i 244 -k IFQ
r -t 0.089099500 -s 1 -d 1 -p cbr -e 520 -c 2 -a 0 -i 28 -k MAC
+ -t 0.089109500 -s 1 -d -1 -p ACK -e 38 -c 2 -a 0 -i 0 -k MAC 
- -t 0.089109500 -s 1 -d -1 -p ACK -e 38 -c 2 -a 0 -i 0 -k MAC
h -t 0.089109500 -s 1 -d -1 -p ACK -e 38 -c 2 -a 0 -i 0 -k MAC
d -t 0.089115909 -s 0 -d 1 -p cbr -e 520 -c 2 -a 0 -i 245 -k IFQ
r -t 0.089414000 -s 0 -d -1 -p ACK -e 38 -c 2 -a 0 -i 0 -k MAC
+ -t 0.089484000 -s 0 -d 1 -p cbr -e 578 -c 2 -a 0 -i 29 -k MAC 
- -t 0.089484000 -s 0 -d 1 -p cbr -e 578 -c 2 -a 0 -i 29 -k MAC
h -t 0.089484000 -s 0 -d 1 -p cbr -e 578 -c 2 -a 0 -i 29 -k MAC
d -t 0.089843182 -s 0 -d 1 -p cbr -e 520 -c 2 -a 0 -i 247 -k IFQ
d -t 0.090206818 -s 0 -d 1 -p cbr -e 520 -c 2 -a 0 -i 248 -k IFQ
d -t 0.090570455 -s 0 -d 1 -p cbr -e 520 -c 2 -a 0 -i 249 -k IFQ
d -t 0.090934091 -s 0 -d 1 -p cbr -e 520 -c 2 -a 0 -i 250 -k IFQ
d -t 0.091297727 -s 0 -d 1 -p cbr -e 520 -c 2 -a 0 -i 251 -k IFQ
d -t 0.091661364 -s 0 -d 1 -p cbr -e 520 -c 2 -a 0 -i 252 -k IFQ
d -t 0.092025000 -s 0 -d 1 -p cbr -e 520 -c 2 -a 0 -i 253 -k IFQ
d -t 0.092388636 -s 0 -d 1 -p cbr -e 520 -c 2 -a 0 -i 254 -k IFQ
d -t 0.092752273 -s 0 -d 1 -p cbr -e 520 -c 2 -a 0 -i 255 -k IFQ
d -t 0.093115909 -s 0 -d 1 -p cbr -e 520 -c 2 -a 0 -i 256 -k IFQ
d -t 0.093479545 -s 0 -d 1 -p cbr -e 520 -c 2 -a 0 -i 257 -k IFQ
d -t 0.093843182 -s 0 -d 1 -p cbr -e 520 -c 2 -a 0 -i 258 -k IFQ
r -t 0.094108500 -s 1 -d 1 -p cbr -e 520 -c 2 -a 0 -i 29 -k MAC
+ -t 0.094118500 -s 1 -d -1 -p ACK -e 38 -c 2 -a 0 -i 0 -k MAC 
- -t 0.094118500 -s 1 -d -1 -p ACK -e 38 -c 2 -a 0 -i 0 -k MAC
h -t 0.094118500 -s 1 -d -1 -p ACK -e 38 -c 2 -a 0 -i 0 -k MAC
d -t 0.094206818 -s 0 -d 1 -p cbr -e 520 -c 2 -a 0 -i 259 -k IFQ
r -t 0.094423000 -s 0 -d -1 -p ACK -e 38 -c 2 -a 0 -i 0 -k MAC
+ -t 0.094713000 -s 0 -d 1 -p cbr -e 578 -c 2 -a 0 -i 30 -k MAC 
- -t 0.094713000 -s 0 -d 1 -p cbr -e 578 -c 2 -a 0 -i 30 -k MAC
h -t 0.094713000 -s 0 -d 1 -p cbr -e 578 -c 2 -a 0 -i 30 -k MAC
d -t 0.094934091 -s 0 -d 1 -p cbr -e 520 -c 2 -a 0 -i 261 -k IFQ
d -t 0.095006000 -s 0 -d 1 -p cbr -e 520 -c 2 -a 0 -i 9 -k IFQ
d -t 0.095297727 -s 0 -d 1 -p cbr -e 520 -c 2 -a 0 -i 262 -k IFQ
d -t 0.095661364 -s 0 -d 1 -p cbr -e 520 -c 2 -a 0 -i 263 -k IFQ
d -t 0.096025000 -s 0 -d 1 -p cbr -e 520 -c 2 -a 0 -i 264 -k IFQ
d -t 0.096388636 -s 0 -d 1 -p cbr -e 520 -c 2 -a 0 -i 265 -k IFQ
d -t 0.096752273 -s 0 -d 1 -p cbr -e 520 -c 2 -a 0 -i 266 -k IFQ
d -t 0.097115909 -s 0 -d 1 -p cbr -e 520 -c 2 -a 0 -i 267 -k IFQ
d -t 0.097479545 -s 0 -d 1 -p cbr -e 520 -c 2 -a 0 -i 268 -k IFQ
d -t 0.097843182 -s 0 -d 1 -p cbr -e 520 -c 2 -a 0 -i 269 -k IFQ
d -t 0.098206818 -s 0 -d 1 -p cbr -e 520 -c 2 -a 0 -i 270 -k IFQ
d -t 0.098570455 -s 0 -d 1 -p cbr -e 520 -c 2 -a 0 -i 271 -k IFQ
d -t 0.098934091 -s 0 -d 1 -p cbr -e 520 -c 2 -a 0 -i 272 -k IFQ
d -t 0.099297727 -s 0 -d 1 -p cbr -e 520 -c 2 -a 0 -i 273 -k IFQ
r -t 0.099337500 -s 1 -d 1 -p cbr -e 520 -c 2 -a 0 -i 30 -k MAC
+ -t 0.099347500 -s 1 -d -1 -p ACK -e 38 -c 2 -a 0 -i 0 -k MAC 
- -t 0.099347500 -s 1 -d -1 -p ACK -e 38 -c 2 -a 0 -i 0 -k MAC
h -t 0.099347500 -s 1 -d -1 -p ACK -e 38 -c 2 -a 0 -i 0 -k MAC
r -t 0.099652000 -s 0 -d -1 -p ACK -e 38 -c 2 -a 0 -i 0 -k MAC
d -t 0.100025000 -s 0 -d 1 -p cbr -e 520 -c 2 -a 0 -i 275 -k IFQ
+ -t 0.100142000 -s 0 -d 1 -p cbr -e 578 -c 2 -a 0 -i 31 -k MAC 
- -t 0.100142000 -s 0 -d 1 -p cbr -e 578 -c 2 -a 0 -i 31 -k MAC
h -t 0.100142000 -s 0 -d 1 -p cbr -e 578 -c 2 -a 0 -i 31 -k MAC
d -t 0.100388636 -s 0 -d 1 -p cbr -e 520 -c 2 -a 0 -i 276 -k IFQ
d -t 0.100752273 -s 0 -d 1 -p cbr -e 520 -c 2 -a 0 -i 277 -k IFQ
d -t 0.101115909 -s 0 -d 1 -p cbr -e 520 -c 2 -a 0 -i 278 -k IFQ
d -t 0.101479545 -s 0 -d 1 -p cbr -e 520 -c 2 -a 0 -i 279 -k IFQ
d -t 0.101843182 -s 0 -d 1 -p cbr -e 520 -c 2 -a 0 -i 280 -k IFQ
d -t 0.102206818 -s 0 -d 1 -p cbr -e 520 -c 2 -a 0 -i 281 -k IFQ
d -t 0.102570455 -s 0 -d 1 -p cbr -e 520 -c 2 -a 0 -i 282 -k IFQ
d -t 0.102934091 -s 0 -d 1 -p cbr -e 520 -c 2 -a 0 -i 283 -k IFQ
d -t 0.103297727 -s 0 -d 1 -p cbr -e 520 -c 2 -a 0 -i 284 -k IFQ
d -t 0.103661364 -s 0 -d 1 -p cbr -e 520 -c 2 -a 0 -i 285 -k IFQ
d -t 0.104025000 -s 0 -d 1 -p cbr -e 520 -c 2 -a 0 -i 286 -k IFQ
d -t 0.104388636 -s 0 -d 1 -p cbr -e 520 -c 2 -a 0 -i 287 -k IFQ
d -t 0.104752273 -s 0 -d 1 -p cbr -e 520 -c 2 -a 0 -i 288 -k IFQ
r -t 0.104766500 -s 1 -d 1 -p cbr -e 520 -c 2 -a 0 -i 31 -k MAC
+ -t 0.104776500 -s 1 -d -1 -p ACK -e 38 -c 2 -a 0 -i 0 -k MAC 
- -t 0.104776500 -s 1 -d -1 -p ACK -e 38 -c 2 -a 0 -i 0 -k MAC
h -t 0.104776500 -s 1 -d -1 -p ACK -e 38 -c 2 -a 0 -i 0 -k MAC
d -t 0.105006000 -s 0 -d 1 -p cbr -e 520 -c 2 -a 0 -i 10 -k IFQ
r -t 0.105081000 -s 0 -d -1 -p ACK -e 38 -c 2 -a 0 -i 0 -k MAC
+ -t 0.105311000 -s 0 -d 1 -p cbr -e 578 -c 2 -a 0 -i 32 -k MAC 
- -t 0.105311000 -s 0 -d 1 -p cbr -e 578 -c 2 -a 0 -i 32 -k MAC
h -t 0.105311000 -s 0 -d 1 -p cbr -e 578 -c 2 -a 0 -i 32 -k MAC
d -t 0.105479545 -s 0 -d 1 -p cbr -e 520 -c 2 -a 0 -i 290 -k IFQ
d -t 0.105843182 -s 0 -d 1 -p cbr -e 520 -c 2 -a 0 -i 291 -k IFQ
d -t 0.106206818 -s 0 -d 1 -p cbr -e 520 -c 2 -a 0 -i 292 -k IFQ
d -t 0.106570455 -s 0 -d 1 -p cbr -e 520 -c 2 -a 0 -i 293 -k IFQ
d -t 0.106934091 -s 0 -d 1 -p cbr -e 520 -c 2 -a 0 -i 294 -k IFQ
d -t 0.107297727 -s 0 -d 1 -p cbr -e 520 -c 2 -a 0 -i 295 -k IFQ
d -t 0.107661364 -s 0 -d 1 -p cbr -e 520 -c 2 -a 0 -i 296 -k IFQ
d -t 0.108025000 -s 0 -d 1 -p cbr -e 520 -c 2 -a 0 -i 297 -k IFQ
d -t 0.108388636 -s 0 -d 1 -p cbr -e 520 -c 2 -a 0 -i 298 -k IFQ
d -t 0.108752273 -s 0 -d 1 -p cbr -e 520 -c 2 -a 0 -i 299 -k IFQ
d -t 0.109115909 -s 0 -d 1 -p cbr -e 520 -c 2 -a 0 -i 300 -k IFQ
d -t 0.109479545 -s 0 -d 1 -p cbr -e 520 -c 2 -a 0 -i 301 -k IFQ
d -t 0.109843182 -s 0 -d 1 -p cbr -e 520 -c 2 -a 0 -i 302 -k IFQ
r -t 0.109935500 -s 1 -d 1 -p cbr -e 520 -c 2 -a 0 -i 32 -k MAC
+ -t 0.109945500 -s 1 -d -1 -p ACK -e 38 -c 2 -a 0 -i 0 -k MAC 
- -t 0.109945500 -s 1 -d -1 -p ACK -e 38 -c 2 -a 0 -i 0 -k MAC
h -t 0.109945500 -s 1 -d -1 -p ACK -e 38 -c 2 -a 0 -i 0 -k MAC
d -t 0.110206818 -s 0 -d 1 -p cbr -e 520 -c 2 -a 0 -i 303 -k IFQ
r -t 0.110250000 -s 0 -d -1 -p ACK -e 38 -c 2 -a 0 -i 0 -k MAC
+ -t 0.110880000 -s 0 -d 1 -p cbr -e 578 -c 2 -a 0 -i 33 -k MAC 
- -t 0.110880000 -s 0 -d 1 -p cbr -e 578 -c 2 -a 0 -i 33 -k MAC
h -t 0.110880000 -s 0 -d 1 -p cbr -e 578 -c 2 -a 0 -i 33 -k MAC
d -t 0.110934091 -s 0 -d 1 -p cbr -e 520 -c 2 -a 0 -i 305 -k IFQ
d -t 0.111297727 -s 0 -d 1 -p cbr -e 520 -c 2 -a 0 -i 306 -k IFQ
d -t 0.111661364 -s 0 -d 1 -p cbr -e 520 -c 2 -a 0 -i 307 -k IFQ
d -t 0.112025000 -s 0 -d 1 -p cbr -e 520 -c 2 -a 0 -i 308 -k IFQ
d -t 0.112388636 -s 0 -d 1 -p cbr -e 520 -c 2 -a 0 -i 309 -k IFQ
d -t 0.112752273 -s 0 -d 1 -p cbr -e 520 -c 2 -a 0 -i 310 -k IFQ
d -t 0.113115909 -s 0 -d 1 -p cbr -e 520 -c 2 -a 0 -i 311 -k IFQ
d -t 0.113479545 -s 0 -d 1 -p cbr -e 520 -c 2 -a 0 -i 312 -k IFQ
d -t 0.113843182 -s 0 -d 1 -p cbr -e 520 -c 2 -a 0 -i 313 -k IFQ
d -t 0.114206818 -s 0 -d 1 -p cbr -e 520 -c 2 -a 0 -i 314 -k IFQ
d -t 0.114570455 -s 0 -d 1 -p cbr -e 520 -c 2 -a 0 -i 315 -k IFQ
d -t 0.114934091 -s 0 -d 1 -p cbr -e 520 -c 2 -a 0 -i 316 -k IFQ
d -t 0.115006000 -s 0 -d 1 -p cbr -e 520 -c 2 -a 0 -i 11 -k IFQ