s 0.000535000 _0_ MAC  --- 0 AODV 106 [0 ffffffff 0 800] ------- [0:255 -1:255 30 0] [0x2 1 1 [1 0] [0 4]] (REQUEST)
r 0.001383500 _1_ MAC  --- 0 AODV 48 [0 ffffffff 0 800] ------- [0:255 -1:255 30 0] [0x2 1 1 [1 0] [0 4]] (REQUEST)
s 0.002023500 _1_ MAC  --- 0 ARP 86 [0 ffffffff 1 806] ------- [REQUEST 1/1 0/0]
r 0.002712000 _0_ MAC  --- 0 ARP 28 [0 ffffffff 1 806] ------- [REQUEST 1/1 0/0]
s 0.003087000 _0_ MAC  --- 0 ARP 86 [13a 1 0 806] ------- [REPLY 0/0 1/1]
r 0.003775500 _1_ MAC  --- 0 ARP 28 [13a 1 0 806] ------- [REPLY 0/0 1/1]
s 0.003785500 _1_ MAC  --- 0 ACK 38 [0 0 0 0] 
r 0.004090000 _0_ MAC  --- 0 ACK 38 [0 0 0 0] 
s 0.004139500 _1_ MAC  --- 0 AODV 102 [13a 0 1 800] ------- [1:255 0:255 30 0] [0x4 1 [1 4] 10.000000] (REPLY)
r 0.004956000 _0_ MAC  --- 0 AODV 44 [13a 0 1 800] ------- [1:255 0:255 30 0] [0x4 1 [1 4] 10.000000] (REPLY)
s 0.004966000 _0_ MAC  --- 0 ACK 38 [0 1 0 0] 
r 0.005270500 _1_ MAC  --- 0 ACK 38 [0 1 0 0] 
s 0.005480000 _0_ MAC  --- 0 cbr 578 [13a 1 0 800] ------- [0:0 1:0 30 1] [0] 0 0
r 0.010104500 _1_ MAC  --- 0 cbr 520 [13a 1 0 800] ------- [0:0 1:0 30 1] [0] 1 0
s 0.010114500 _1_ MAC  --- 0 ACK 38 [0 0 0 0] 
r 0.010419000 _0_ MAC  --- 0 ACK 38 [0 0 0 0] 
s 0.010709000 _0_ MAC  --- 14 cbr 578 [13a 1 0 800] ------- [0:0 1:0 30 1] [14] 0 0
D 0.012388636 _0_ IFQ  --- 34 cbr 520 [0 1 0 800] ------- [0:0 1:0 30 1] [34] 0 0
D 0.012752273 _0_ IFQ  --- 35 cbr 520 [0 1 0 800] ------- [0:0 1:0 30 1] [35] 0 0
D 0.013115909 _0_ IFQ  --- 36 cbr 520 [0 1 0 800] ------- [0:0 1:0 30 1] [36] 0 0
D 0.013479545 _0_ IFQ  --- 37 cbr 520 [0 1 0 800] ------- [0:0 1:0 30 1] [37] 0 0
D 0.013843182 _0_ IFQ  --- 38 cbr 520 [0 1 0 800] ------- [0:0 1:0 30 1] [38] 0 0
D 0.014206818 _0_ IFQ  --- 39 cbr 520 [0 1 0 800] ------- [0:0 1:0 30 1] [39] 0 0
D 0.014570455 _0_ IFQ  --- 40 cbr 520 [0 1 0 800] ------- [0:0 1:0 30 1] [40] 0 0
D 0.014934091 _0_ IFQ  --- 41 cbr 520 [0 1 0 800] ------- [0:0 1:0 30 1] [41] 0 0
D 0.015006000 _0_ IFQ  --- 1 cbr 520 [0 1 0 800] ------- [0:0 1:0 30 1] [1] 0 0
D 0.015297727 _0_ IFQ  --- 42 cbr 520 [0 1 0 800] ------- [0:0 1:0 30 1] [42] 0 0
r 0.015333500 _1_ MAC  --- 14 cbr 520 [13a 1 0 800] ------- [0:0 1:0 30 1] [14] 1 0
s 0.015343500 _1_ MAC  --- 0 ACK 38 [0 0 0 0] 
r 0.015648000 _0_ MAC  --- 0 ACK 38 [0 0 0 0] 
D 0.016025000 _0_ IFQ  --- 44 cbr 520 [0 1 0 800] ------- [0:0 1:0 30 1] [44] 0 0
s 0.016058000 _0_ MAC  --- 15 cbr 578 [13a 1 0 800] ------- [0:0 1:0 30 1] [15] 0 0
D 0.016388636 _0_ IFQ  --- 45 cbr 520 [0 1 0 800] ------- [0:0 1:0 30 1] [45] 0 0
D 0.016752273 _0_ IFQ  --- 46 cbr 520 [0 1 0 800] ------- [0:0 1:0 30 1] [46] 0 0
D 0.017115909 _0_ IFQ  --- 47 cbr 520 [0 1 0 800] ------- [0:0 1:0 30 1] [47] 0 0
D 0.017479545 _0_ IFQ  --- 48 cbr 520 [0 1 0 800] ------- [0:0 1:0 30 1] [48] 0 0
D 0.017843182 _0_ IFQ  --- 49 cbr 520 [0 1 0 800] ------- [0:0 1:0 30 1] [49] 0 0
D 0.018206818 _0_ IFQ  --- 50 cbr 520 [0 1 0 800] ------- [0:0 1:0 30 1] [50] 0 0
D 0.018570455 _0_ IFQ  --- 51 cbr 520 [0 1 0 800] ------- [0:0 1:0 30 1] [51] 0 0
D 0.018934091 _0_ IFQ  --- 52 cbr 520 [0 1 0 800] ------- [0:0 1:0 30 1] [52] 0 0
D 0.019297727 _0_ IFQ  --- 53 cbr 520 [0 1 0 800] ------- [0:0 1:0 30 1] [53] 0 0
D 0.019661364 _0_ IFQ  --- 54 cbr 520 [0 1 0 800] ------- [0:0 1:0 30 1] [54] 0 0
D 0.020025000 _0_ IFQ  --- 55 cbr 520 [0 1 0 800] ------- [0:0 1:0 30 1] [55] 0 0
D 0.020388636 _0_ IFQ  --- 56 cbr 520 [0 1 0 800] ------- [0:0 1:0 30 1] [56] 0 0
r 0.020682500 _1_ MAC  --- 15 cbr 520 [13a 1 0 800] ------- [0:0 1:0 30 1] [15] 1 0
s 0.020692500 _1_ MAC  --- 0 ACK 38 [0 0 0 0] 
D 0.020752273 _0_ IFQ  --- 57 cbr 520 [0 1 0 800] ------- [0:0 1:0 30 1] [57] 0 0
r 0.020997000 _0_ MAC  --- 0 ACK 38 [0 0 0 0] 
s 0.021307000 _0_ MAC  --- 16 cbr 578 [13a 1 0 800] ------- [0:0 1:0 30 1] [16] 0 0
D 0.021479545 _0_ IFQ  --- 59 cbr 520 [0 1 0 800] ------- [0:0 1:0 30 1] [59] 0 0
D 0.021843182 _0_ IFQ  --- 60 cbr 520 [0 1 0 800] ------- [0:0 1:0 30 1] [60] 0 0
D 0.022206818 _0_ IFQ  --- 61 cbr 520 [0 1 0 800] ------- [0:0 1:0 30 1] [61] 0 0
D 0.022570455 _0_ IFQ  --- 62 cbr 520 [0 1 0 800] ------- [0:0 1:0 30 1] [62] 0 0
D 0.022934091 _0_ IFQ  --- 63 cbr 520 [0 1 0 800] ------- [0:0 1:0 30 1] [63] 0 0
D 0.023297727 _0_ IFQ  --- 64 cbr 520 [0 1 0 800] ------- [0:0 1:0 30 1] [64] 0 0
D 0.023661364 _0_ IFQ  --- 65 cbr 520 [0 1 0 800] ------- [0:0 1:0 30 1] [65] 0 0
D 0.024025000 _0_ IFQ  --- 66 cbr 520 [0 1 0 800] ------- [0:0 1:0 30 1] [66] 0 0
D 0.024388636 _0_ IFQ  --- 67 cbr 520 [0 1 0 800] ------- [0:0 1:0 30 1] [67] 0 0
D 0.024752273 _0_ IFQ  --- 68 cbr 520 [0 1 0 800] ------- [0:0 1:0 30 1] [68] 0 0
D 0.025006000 _0_ IFQ  --- 2 cbr 520 [0 1 0 800] ------- [0:0 1:0 30 1] [2] 0 0
D 0.025115909 _0_ IFQ  --- 69 cbr 520 [0 1 0 800] ------- [0:0 1:0 30 1] [69] 0 0
D 0.025479545 _0_ IFQ  --- 70 cbr 520 [0 1 0 800] ------- [0:0 1:0 30 1] [70] 0 0
D 0.025843182 _0_ IFQ  --- 71 cbr 520 [0 1 0 800] ------- [0:0 1:0 30 1] [71] 0 0
r 0.025931500 _1_ MAC  --- 16 cbr 520 [13a 1 0 800] ------- [0:0 1:0 30 1] [16] 1 0
s 0.025941500 _1_ MAC  --- 0 ACK 38 [0 0 0 0] 
D 0.026206818 _0_ IFQ  --- 72 cbr 520 [0 1 0 800] ------- [0:0 1:0 30 1] [72] 0 0
r 0.026246000 _0_ MAC  --- 0 ACK 38 [0 0 0 0] 
s 0.026536000 _0_ MAC  --- 17 cbr 578 [13a 1 0 800] ------- [0:0 1:0 30 1] [17] 0 0
D 0.026934091 _0_ IFQ  --- 74 cbr 520 [0 1 0 800] ------- [0:0 1:0 30 1] [74] 0 0
D 0.027297727 _0_ IFQ  --- 75 cbr 520 [0 1 0 800] ------- [0:0 1:0 30 1] [75] 0 0
D 0.027661364 _0_ IFQ  --- 76 cbr 520 [0 1 0 800] ------- [0:0 1:0 30 1] [76] 0 0
D 0.028025000 _0_ IFQ  --- 77 cbr 520 [0 1 0 800] ------- [0:0 1:0 30 1] [77] 0 0
D 0.028388636 _0_ IFQ  --- 78 cbr 520 [0 1 0 800] ------- [0:0 1:0 30 1] [78] 0 0
D 0.028752273 _0_ IFQ  --- 79 cbr 520 [0 1 0 800] ------- [0:0 1:0 30 1] [79] 0 0
D 0.029115909 _0_ IFQ  --- 80 cbr 520 [0 1 0 800] ------- [0:0 1:0 30 1] [80] 0 0
D 0.029479545 _0_ IFQ  --- 81 cbr 520 [0 1 0 800] ------- [0:0 1:0 30 1] [81] 0 0
D 0.029843182 _0_ IFQ  --- 82 cbr 520 [0 1 0 800] ------- [0:0 1:0 30 1] [82] 0 0
D 0.030206818 _0_ IFQ  --- 83 cbr 520 [0 1 0 800] ------- [0:0 1:0 30 1] [83] 0 0
D 0.030570455 _0_ IFQ  --- 84 cbr 520 [0 1 0 800] ------- [0:0 1:0 30 1] [84] 0 0
D 0.030934091 _0_ IFQ  --- 85 cbr 520 [0 1 0 800] ------- [0:0 1:0 30 1] [85] 0 0
r 0.031160500 _1_ MAC  --- 17 cbr 520 [13a 1 0 800] ------- [0:0 1:0 30 1] [17] 1 0
s 0.031170500 _1_ MAC  --- 0 ACK 38 [0 0 0 0] 
D 0.031297727 _0_ IFQ  --- 86 cbr 520 [0 1 0 800] ------- [0:0 1:0 30 1] [86] 0 0
r 0.031475000 _0_ MAC  --- 0 ACK 38 [0 0 0 0] 
s 0.031565000 _0_ MAC  --- 18 cbr 578 [13a 1 0 800] ------- [0:0 1:0 30 1] [18] 0 0
D 0.032025000 _0_ IFQ  --- 88 cbr 520 [0 1 0 800] ------- [0:0 1:0 30 1] [88] 0 0
D 0.032388636 _0_ IFQ  --- 89 cbr 520 [0 1 0 800] ------- [0:0 1:0 30 1] [89] 0 0
D 0.032752273 _0_ IFQ  --- 90 cbr 520 [0 1 0 800] ------- [0:0 1:0 30 1] [90] 0 0
D 0.033115909 _0_ IFQ  --- 91 cbr 520 [0 1 0 800] ------- [0:0 1:0 30 1] [91] 0 0
D 0.033479545 _0_ IFQ  --- 92 cbr 520 [0 1 0 800] ------- [0:0 1:0 30 1] [92] 0 0
D 0.033843182 _0_ IFQ  --- 93 cbr 520 [0 1 0 800] ------- [0:0 1:0 30 1] [93] 0 0
D 0.034206818 _0_ IFQ  --- 94 cbr 520 [0 1 0 800] ------- [0:0 1:0 30 1] [94] 0 0
D 0.034570455 _0_ IFQ  --- 95 cbr 520 [0 1 0 800] ------- [0:0 1:0 30 1] [95] 0 0
D 0.034934091 _0_ IFQ  --- 96 cbr 520 [0 1 0 800] ------- [0:0 1:0 30 1] [96] 0 0
D 0.035006000 _0_ IFQ  --- 3 cbr 520 [0 1 0 800] ------- [0:0 1:0 30 1] [3] 0 0
D 0.035297727 _0_ IFQ  --- 97 cbr 520 [0 1 0 800] ------- [0:0 1:0 30 1] [97] 0 0
D 0.035661364 _0_ IFQ  --- 98 cbr 520 [0 1 0 800] ------- [0:0 1:0 30 1] [98] 0 0
D 0.036025000 _0_ IFQ  --- 99 cbr 520 [0 1 0 800] ------- [0:0 1:0 30 1] [99] 0 0
r 0.036189500 _1_ MAC  --- 18 cbr 520 [13a 1 0 800] ------- [0:0 1:0 30 1] [18] 1 0
s 0.036199500 _1_ MAC  --- 0 ACK 38 [0 0 0 0] 
D 0.036388636 _0_ IFQ  --- 100 cbr 520 [0 1 0 800] ------- [0:0 1:0 30 1] [100] 0 0
r 0.036504000 _0_ MAC  --- 0 ACK 38 [0 0 0 0] 
s 0.037094000 _0_ MAC  --- 19 cbr 578 [13a 1 0 800] ------- [0:0 1:0 30 1] [19] 0 0
D 0.037115909 _0_ IFQ  --- 102 cbr 520 [0 1 0 800] ------- [0:0 1:0 30 1] [102] 0 0
D 0.037479545 _0_ IFQ  --- 103 cbr 520 [0 1 0 800] ------- [0:0 1:0 30 1] [103] 0 0
D 0.037843182 _0_ IFQ  --- 104 cbr 520 [0 1 0 800] ------- [0:0 1:0 30 1] [104] 0 0
D 0.038206818 _0_ IFQ  --- 105 cbr 520 [0 1 0 800] ------- [0:0 1:0 30 1] [105] 0 0
D 0.038570455 _0_ IFQ  --- 106 cbr 520 [0 1 0 800] ------- [0:0 1:0 30 1] [106] 0 0
D 0.038934091 _0_ IFQ  --- 107 cbr 520 [0 1 0 800] ------- [0:0 1:0 30 1] [107] 0 0
D 0.039297727 _0_ IFQ  --- 108 cbr 520 [0 1 0 800] ------- [0:0 1:0 30 1] [108] 0 0
D 0.039661364 _0_ IFQ  --- 109 cbr 520 [0 1 0 800] ------- [0:0 1:0 30 1] [109] 0 0
D 0.040025000 _0_ IFQ  --- 110 cbr 520 [0 1 0 800] ------- [0:0 1:0 30 1] [110] 0 0
D 0.040388636 _0_ IFQ  --- 111 cbr 520 [0 1 0 800] ------- [0:0 1:0 30 1] [111] 0 0
D 0.040752273 _0_ IFQ  --- 112 cbr 520 [0 1 0 800] ------- [0:0 1:0 30 1] [112] 0 0
D 0.041115909 _0_ IFQ  --- 113 cbr 520 [0 1 0 800] ------- [0:0 1:0 30 1] [113] 0 0
D 0.041479545 _0_ IFQ  --- 114 cbr 520 [0 1 0 800] ------- [0:0 1:0 30 1] [114] 0 0
r 0.041718500 _1_ MAC  --- 19 cbr 520 [13a 1 0 800] ------- [0:0 1:0 30 1] [19] 1 0
s 0.041728500 _1_ MAC  --- 0 ACK 38 [0 0 0 0] 
D 0.041843182 _0_ IFQ  --- 115 cbr 520 [0 1 0 800] ------- [0:0 1:0 30 1] [115] 0 0
r 0.042033000 _0_ MAC  --- 0 ACK 38 [0 0 0 0] 
s 0.042243000 _0_ MAC  --- 20 cbr 578 [13a 1 0 800] ------- [0:0 1:0 30 1] [20] 0 0
D 0.042570455 _0_ IFQ  --- 117 cbr 520 [0 1 0 800] ------- [0:0 1:0 30 1] [117] 0 0
D 0.042934091 _0_ IFQ  --- 118 cbr 520 [0 1 0 800] ------- [0:0 1:0 30 1] [118] 0 0
D 0.043297727 _0_ IFQ  --- 119 cbr 520 [0 1 0 800] ------- [0:0 1:0 30 1] [119] 0 0
D 0.043661364 _0_ IFQ  --- 120 cbr 520 [0 1 0 800] ------- [0:0 1:0 30 1] [120] 0 0
D 0.044025000 _0_ IFQ  --- 121 cbr 520 [0 1 0 800] ------- [0:0 1:0 30 1] [121] 0 0
D 0.044388636 _0_ IFQ  --- 122 cbr 520 [0 1 0 800] ------- [0:0 1:0 30 1] [122] 0 0
D 0.044752273 _0_ IFQ  --- 123 cbr 520 [0 1 0 800] ------- [0:0 1:0 30 1] [123] 0 0
D 0.045006000 _0_ IFQ  --- 4 cbr 520 [0 1 0 800] ------- [0:0 1:0 30 1] [4] 0 0
D 0.045115909 _0_ IFQ  --- 124 cbr 520 [0 1 0 800] ------- [0:0 1:0 30 1] [124] 0 0
D 0.045479545 _0_ IFQ  --- 125 cbr 520 [0 1 0 800] ------- [0:0 1:0 30 1] [125] 0 0
D 0.045843182 _0_ IFQ  --- 126 cbr 520 [0 1 0 800] ------- [0:0 1:0 30 1] [126] 0 0
D 0.046206818 _0_ IFQ  --- 127 cbr 520 [0 1 0 800] ------- [0:0 1:0 30 1] [127] 0 0
D 0.046570455 _0_ IFQ  --- 128 cbr 520 [0 1 0 800] ------- [0:0 1:0 30 1] [128] 0 0
r 0.046867500 _1_ MAC  --- 20 cbr 520 [13a 1 0 800] ------- [0:0 1:0 30 1] [20] 1 0
s 0.046877500 _1_ MAC  --- 0 ACK 38 [0 0 0 0] 
D 0.046934091 _0_ IFQ  --- 129 cbr 520 [0 1 0 800] ------- [0:0 1:0 30 1] [129] 0 0
r 0.047182000 _0_ MAC  --- 0 ACK 38 [0 0 0 0] 
s 0.047592000 _0_ MAC  --- 21 cbr 578 [13a 1 0 800] ------- [0:0 1:0 30 1] [21] 0 0
D 0.047661364 _0_ IFQ  --- 131 cbr 520 [0 1 0 800] ------- [0:0 1:0 30 1] [131] 0 0
D 0.048025000 _0_ IFQ  --- 132 cbr 520 [0 1 0 800] ------- [0:0 1:0 30 1] [132] 0 0
D 0.048388636 _0_ IFQ  --- 133 cbr 520 [0 1 0 800] ------- [0:0 1:0 30 1] [133] 0 0
D 0.048752273 _0_ IFQ  --- 134 cbr 520 [0 1 0 800] ------- [0:0 1:0 30 1] [134] 0 0
D 0.049115909 _0_ IFQ  --- 135 cbr 520 [0 1 0 800] ------- [0:0 1:0 30 1] [135] 0 0
D 0.049479545 _0_ IFQ  --- 136 cbr 520 [0 1 0 800] ------- [0:0 1:0 30 1] [136] 0 0
D 0.049843182 _0_ IFQ  --- 137 cbr 520 [0 1 0 800] ------- [0:0 1:0 30 1] [137] 0 0
D 0.050206818 _0_ IFQ  --- 138 cbr 520 [0 1 0 800] ------- [0:0 1:0 30 1] [138] 0 0
D 0.050570455 _0_ IFQ  --- 139 cbr 520 [0 1 0 800] ------- [0:0 1:0 30 1] [139] 0 0
D 0.050934091 _0_ IFQ  --- 140 cbr 520 [0 1 0 800] ------- [0:0 1:0 30 1] [140] 0 0
D 0.051297727 _0_ IFQ  --- 141 cbr 520 [0 1 0 800] ------- [0:0 1:0 30 1] [141] 0 0
D 0.051661364 _0_ IFQ  --- 142 cbr 520 [0 1 0 800] ------- [0:0 1:0 30 1] [142] 0 0
D 0.052025000 _0_ IFQ  --- 143 cbr 520 [0 1 0 800] ------- [0:0 1:0 30 1] [143] 0 0
r 0.052216500 _1_ MAC  --- 21 cbr 520 [13a 1 0 800] ------- [0:0 1:0 30 1] [21] 1 0
s 0.052226500 _1_ MAC  --- 0 ACK 38 [0 0 0 0] 
D 0.052388636 _0_ IFQ  --- 144 cbr 520 [0 1 0 800] ------- [0:0 1:0 30 1] [144] 0 0
r 0.052531000 _0_ MAC  --- 0 ACK 38 [0 0 0 0] 
s 0.052821000 _0_ MAC  --- 22 cbr 578 [13a 1 0 800] ------- [0:0 1:0 30 1] [22] 0 0
D 0.053115909 _0_ IFQ  --- 146 cbr 520 [0 1 0 800] ------- [0:0 1:0 30 1] [146] 0 0
D 0.053479545 _0_ IFQ  --- 147 cbr 520 [0 1 0 800] ------- [0:0 1:0 30 1] [147] 0 0
D 0.053843182 _0_ IFQ  --- 148 cbr 520 [0 1 0 800] ------- [0:0 1:0 30 1] [148] 0 0
D 0.054206818 _0_ IFQ  --- 149 cbr 520 [0 1 0 800] ------- [0:0 1:0 30 1] [149] 0 0
D 0.054570455 _0_ IFQ  --- 150 cbr 520 [0 1 0 800] ------- [0:0 1:0 30 1] [150] 0 0
D 0.054934091 _0_ IFQ  --- 151 cbr 520 [0 1 0 800] ------- [0:0 1:0 30 1] [151] 0 0
D 0.055006000 _0_ IFQ  --- 5 cbr 520 [0 1 0 800] ------- [0:0 1:0 30 1] [5] 0 0
D 0.055297727 _0_ IFQ  --- 152 cbr 520 [0 1 0 800] ------- [0:0 1:0 30 1] [152] 0 0
D 0.055661364 _0_ IFQ  --- 153 cbr 520 [0 1 0 800] ------- [0:0 1:0 30 1] [153] 0 0
D 0.056025000 _0_ IFQ  --- 154 cbr 520 [0 1 0 800] ------- [0:0 1:0 30 1] [154] 0 0
D 0.056388636 _0_ IFQ  --- 155 cbr 520 [0 1 0 800] ------- [0:0 1:0 30 1] [155] 0 0
D 0.056752273 _0_ IFQ  --- 156 cbr 520 [0 1 0 800] ------- [0:0 1:0 30 1] [156] 0 0
D 0.057115909 _0_ IFQ  --- 157 cbr 520 [0 1 0 800] ------- [0:0 1:0 30 1] [157] 0 0
r 0.057445500 _1_ MAC  --- 22 cbr 520 [13a 1 0 800] ------- [0:0 1:0 30 1] [22] 1 0
s 0.057455500 _1_ MAC  --- 0 ACK 38 [0 0 0 0] 
D 0.057479545 _0_ IFQ  --- 158 cbr 520 [0 1 0 800] ------- [0:0 1:0 30 1] [158] 0 0
r 0.057760000 _0_ MAC  --- 0 ACK 38 [0 0 0 0] 
s 0.057970000 _0_ MAC  --- 23 cbr 578 [13a 1 0 800] ------- [0:0 1:0 30 1] [23] 0 0
D 0.058206818 _0_ IFQ  --- 160 cbr 520 [0 1 0 800] ------- [0:0 1:0 30 1] [160] 0 0
D 0.058570455 _0_ IFQ  --- 161 cbr 520 [0 1 0 800] ------- [0:0 1:0 30 1] [161] 0 0
D 0.058934091 _0_ IFQ  --- 162 cbr 520 [0 1 0 800] ------- [0:0 1:0 30 1] [162] 0 0
D 0.059297727 _0_ IFQ  --- 163 cbr 520 [0 1 0 800] ------- [0:0 1:0 30 1] [163] 0 0
D 0.059661364 _0_ IFQ  --- 164 cbr 520 [0 1 0 800] ------- [0:0 1:0 30 1] [164] 0 0
D 0.060025000 _0_ IFQ  --- 165 cbr 520 [0 1 0 800] ------- [0:0 1:0 30 1] [165] 0 0
D 0.060388636 _0_ IFQ  --- 166 cbr 520 [0 1 0 800] ------- [0:0 1:0 30 1] [166] 0 0
D 0.060752273 _0_ IFQ  --- 167 cbr 520 [0 1 0 800] ------- [0:0 1:0 30 1] [167] 0 0
D 0.061115909 _0_ IFQ  --- 168 cbr 520 [0 1 0 800] ------- [0:0 1:0 30 1] [168] 0 0
D 0.061479545 _0_ IFQ  --- 169 cbr 520 [0 1 0 800] ------- [0:0 1:0 30 1] [169] 0 0
D 0.061843182 _0_ IFQ  --- 170 cbr 520 [0 1 0 800] ------- [0:0 1:0 30 1] [170] 0 0
D 0.062206818 _0_ IFQ  --- 171 cbr 520 [0 1 0 800] ------- [0:0 1:0 30 1] [171] 0 0
D 0.062570455 _0_ IFQ  --- 172 cbr 520 [0 1 0 800] ------- [0:0 1:0 30 1] [172] 0 0
r 0.062594500 _1_ MAC  --- 23 cbr 520 [13a 1 0 800] ------- [0:0 1:0 30 1] [23] 1 0
s 0.062604500 _1_ MAC  --- 0 ACK 38 [0 0 0 0] 
r 0.062909000 _0_ MAC  --- 0 ACK 38 [0 0 0 0] 
D 0.063297727 _0_ IFQ  --- 174 cbr 520 [0 1 0 800] ------- [0:0 1:0 30 1] [174] 0 0
s 0.063439000 _0_ MAC  --- 24 cbr 578 [13a 1 0 800] ------- [0:0 1:0 30 1] [24] 0 0
D 0.063661364 _0_ IFQ  --- 175 cbr 520 [0 1 0 800] ------- [0:0 1:0 30 1] [175] 0 0
D 0.064025000 _0_ IFQ  --- 176 cbr 520 [0 1 0 800] ------- [0:0 1:0 30 1] [176] 0 0
D 0.064388636 _0_ IFQ  --- 177 cbr 520 [0 1 0 800] ------- [0:0 1:0 30 1] [177] 0 0
D 0.064752273 _0_ IFQ  --- 178 cbr 520 [0 1 0 800] ------- [0:0 1:0 30 1] [178] 0 0
D 0.065006000 _0_ IFQ  --- 6 cbr 520 [0 1 0 800] ------- [0:0 1:0 30 1] [6] 0 0
D 0.065115909 _0_ IFQ  --- 179 cbr 520 [0 1 0 800] ------- [0:0 1:0 30 1] [179] 0 0
D 0.065479545 _0_ IFQ  --- 180 cbr 520 [0 1 0 800] ------- [0:0 1:0 30 1] [180] 0 0
D 0.065843182 _0_ IFQ  --- 181 cbr 520 [0 1 0 800] ------- [0:0 1:0 30 1] [181] 0 0
D 0.066206818 _0_ IFQ  --- 182 cbr 520 [0 1 0 800] ------- [0:0 1:0 30 1] [182] 0 0
D 0.066570455 _0_ IFQ  --- 183 cbr 520 [0 1 0 800] ------- [0:0 1:0 30 1] [183] 0 0
D 0.066934091 _0_ IFQ  --- 184 cbr 520 [0 1 0 800] ------- [0:0 1:0 30 1] [184] 0 0
D 0.067297727 _0_ IFQ  --- 185 cbr 520 [0 1 0 800] ------- [0:0 1:0 30 1] [185] 0 0
D 0.067661364 _0_ IFQ  --- 186 cbr 520 [0 1 0 800] ------- [0:0 1:0 30 1] [186] 0 0
D 0.068025000 _0_ IFQ  --- 187 cbr 520 [0 1 0 800] ------- [0:0 1:0 30 1] [187] 0 0
r 0.068063500 _1_ MAC  --- 24 cbr 520 [13a 1 0 800] ------- [0:0 1:0 30 1] [24] 1 0
s 0.068073500 _1_ MAC  --- 0 ACK 38 [0 0 0 0] 
r 0.068378000 _0_ MAC  --- 0 ACK 38 [0 0 0 0] 
D 0.068752273 _0_ IFQ  --- 189 cbr 520 [0 1 0 800] ------- [0:0 1:0 30 1] [189] 0 0
s 0.068768000 _0_ MAC  --- 25 cbr 578 [13a 1 0 800] ------- [0:0 1:0 30 1] [25] 0 0
D 0.069115909 _0_ IFQ  --- 190 cbr 520 [0 1 0 800] ------- [0:0 1:0 30 1] [190] 0 0
D 0.069479545 _0_ IFQ  --- 191 cbr 520 [0 1 0 800] ------- [0:0 1:0 30 1] [191] 0 0
D 0.069843182 _0_ IFQ  --- 192 cbr 520 [0 1 0 800] ------- [0:0 1:0 30 1] [192] 0 0
D 0.070206818 _0_ IFQ  --- 193 cbr 520 [0 1 0 800] ------- [0:0 1:0 30 1] [193] 0 0
D 0.070570455 _0_ IFQ  --- 194 cbr 520 [0 1 0 800] ------- [0:0 1:0 30 1] [194] 0 0
D 0.070934091 _0_ IFQ  --- 195 cbr 520 [0 1 0 800] ------- [0:0 1:0 30 1] [195] 0 0
D 0.071297727 _0_ IFQ  --- 196 cbr 520 [0 1 0 800] ------- [0:0 1:0 30 1] [196] 0 0
D 0.071661364 _0_ IFQ  --- 197 cbr 520 [0 1 0 800] ------- [0:0 1:0 30 1] [197] 0 0
D 0.072025000 _0_ IFQ  --- 198 cbr 520 [0 1 0 800] ------- [0:0 1:0 30 1] [198] 0 0
D 0.072388636 _0_ IFQ  --- 199 cbr 520 [0 1 0 800] ------- [0:0 1:0 30 1] [199] 0 0
D 0.072752273 _0_ IFQ  --- 200 cbr 520 [0 1 0 800] ------- [0:0 1:0 30 1] [200] 0 0
D 0.073115909 _0_ IFQ  --- 201 cbr 520 [0 1 0 800] ------- [0:0 1:0 30 1] [201] 0 0
r 0.073392500 _1_ MAC  --- 25 cbr 520 [13a 1 0 800] ------- [0:0 1:0 30 1] [25] 1 0
s 0.073402500 _1_ MAC  --- 0 ACK 38 [0 0 0 0] 
D 0.073479545 _0_ IFQ  --- 202 cbr 520 [0 1 0 800] ------- [0:0 1:0 30 1] [202] 0 0
r 0.073707000 _0_ MAC  --- 0 ACK 38 [0 0 0 0] 
s 0.074077000 _0_ MAC  --- 26 cbr 578 [13a 1 0 800] ------- [0:0 1:0 30 1] [26] 0 0
D 0.074206818 _0_ IFQ  --- 204 cbr 520 [0 1 0 800] ------- [0:0 1:0 30 1] [204] 0 0
D 0.074570455 _0_ IFQ  --- 205 cbr 520 [0 1 0 800] ------- [0:0 1:0 30 1] [205] 0 0
D 0.074934091 _0_ IFQ  --- 206 cbr 520 [0 1 0 800] ------- [0:0 1:0 30 1] [206] 0 0
D 0.075006000 _0_ IFQ  --- 7 cbr 520 [0 1 0 800] ------- [0:0 1:0 30 1] [7] 0 0
D 0.075297727 _0_ IFQ  --- 207 cbr 520 [0 1 0 800] ------- [0:0 1:0 30 1] [207] 0 0
D 0.075661364 _0_ IFQ  --- 208 cbr 520 [0 1 0 800] ------- [0:0 1:0 30 1] [208] 0 0
D 0.076025000 _0_ IFQ  --- 209 cbr 520 [0 1 0 800] ------- [0:0 1:0 30 1] [209] 0 0
D 0.076388636 _0_ IFQ  --- 210 cbr 520 [0 1 0 800] ------- [0:0 1:0 30 1] [210] 0 0
D 0.076752273 _0_ IFQ  --- 211 cbr 520 [0 1 0 800] ------- [0:0 1:0 30 1] [211] 0 0
D 0.077115909 _0_ IFQ  --- 212 cbr 520 [0 1 0 800] ------- [0:0 1:0 30 1] [212] 0 0
D 0.077479545 _0_ IFQ  --- 213 cbr 520 [0 1 0 800] ------- [0:0 1:0 30 1] [213] 0 0
D 0.077843182 _0_ IFQ  --- 214 cbr 520 [0 1 0 800] ------- [0:0 1:0 30 1] [214] 0 0
D 0.078206818 _0_ IFQ  --- 215 cbr 520 [0 1 0 800] ------- [0:0 1:0 30 1] [215] 0 0
D 0.078570455 _0_ IFQ  --- 216 cbr 520 [0 1 0 800] ------- [0:0 1:0 30 1] [216] 0 0
r 0.078701500 _1_ MAC  --- 26 cbr 520 [13a 1 0 800] ------- [0:0 1:0 30 1] [26] 1 0
s 0.078711500 _1_ MAC  --- 0 ACK 38 [0 0 0 0] 
D 0.078934091 _0_ IFQ  --- 217 cbr 520 [0 1 0 800] ------- [0:0 1:0 30 1] [217] 0 0
r 0.079016000 _0_ MAC  --- 0 ACK 38 [0 0 0 0] 
s 0.079266000 _0_ MAC  --- 27 cbr 578 [13a 1 0 800] ------- [0:0 1:0 30 1] [27] 0 0
D 0.079661364 _0_ IFQ  --- 219 cbr 520 [0 1 0 800] ------- [0:0 1:0 30 1] [219] 0 0
D 0.080025000 _0_ IFQ  --- 220 cbr 520 [0 1 0 800] ------- [0:0 1:0 30 1] [220] 0 0
D 0.080388636 _0_ IFQ  --- 221 cbr 520 [0 1 0 800] ------- [0:0 1:0 30 1] [221] 0 0
D 0.080752273 _0_ IFQ  --- 222 cbr 520 [0 1 0 800] ------- [0:0 1:0 30 1] [222] 0 0
D 0.081115909 _0_ IFQ  --- 223 cbr 520 [0 1 0 800] ------- [0:0 1:0 30 1] [223] 0 0
D 0.081479545 _0_ IFQ  --- 224 cbr 520 [0 1 0 800] ------- [0:0 1:0 30 1] [224] 0 0
D 0.081843182 _0_ IFQ  --- 225 cbr 520 [0 1 0 800] ------- [0:0 1:0 30 1] [225] 0 0
D 0.082206818 _0_ IFQ  --- 226 cbr 520 [0 1 0 800] ------- [0:0 1:0 30 1] [226] 0 0
D 0.082570455 _0_ IFQ  --- 227 cbr 520 [0 1 0 800] ------- [0:0 1:0 30 1] [227] 0 0
D 0.082934091 _0_ IFQ  --- 228 cbr 520 [0 1 0 800] ------- [0:0 1:0 30 1] [228] 0 0
D 0.083297727 _0_ IFQ  --- 229 cbr 520 [0 1 0 800] ------- [0:0 1:0 30 1] [229] 0 0
D 0.083661364 _0_ IFQ  --- 230 cbr 520 [0 1 0 800] ------- [0:0 1:0 30 1] [230] 0 0
r 0.083890500 _1_ MAC  --- 27 cbr 520 [13a 1 0 800] ------- [0:0 1:0 30 1] [27] 1 0
s 0.083900500 _1_ MAC  --- 0 ACK 38 [0 0 0 0] 
D 0.084025000 _0_ IFQ  --- 231 cbr 520 [0 1 0 800] ------- [0:0 1:0 30 1] [231] 0 0
r 0.084205000 _0_ MAC  --- 0 ACK 38 [0 0 0 0] 
s 0.084475000 _0_ MAC  --- 28 cbr 578 [13a 1 0 800] ------- [0:0 1:0 30 1] [28] 0 0
D 0.084752273 _0_ IFQ  --- 233 cbr 520 [0 1 0 800] ------- [0:0 1:0 30 1] [233] 0 0
D 0.085006000 _0_ IFQ  --- 8 cbr 520 [0 1 0 800] ------- [0:0 1:0 30 1] [8] 0 0
D 0.085115909 _0_ IFQ  --- 234 cbr 520 [0 1 0 800] ------- [0:0 1:0 30 1] [234] 0 0
D 0.085479545 _0_ IFQ  --- 235 cbr 520 [0 1 0 800] ------- [0:0 1:0 30 1] [235] 0 0
D 0.085843182 _0_ IFQ  --- 236 cbr 520 [0 1 0 800] ------- [0:0 1:0 30 1] [236] 0 0
D 0.086206818 _0_ IFQ  --- 237 cbr 520 [0 1 0 800] ------- [0:0 1:0 30 1] [237] 0 0
D 0.086570455 _0_ IFQ  --- 238 cbr 520 [0 1 0 800] ------- [0:0 1:0 30 1] [238] 0 0
D 0.086934091 _0_ IFQ  --- 239 cbr 520 [0 1 0 800] ------- [0:0 1:0 30 1] [239] 0 0
D 0.087297727 _0_ IFQ  --- 240 cbr 520 [0 1 0 800] ------- [0:0 1:0 30 1] [240] 0 0
D 0.087661364 _0_ IFQ  --- 241 cbr 520 [0 1 0 800] ------- [0:0 1:0 30 1] [241] 0 0
D 0.088025000 _0_ IFQ  --- 242 cbr 520 [0 1 0 800] ------- [0:0 1:0 30 1] [242] 0 0
D 0.088388636 _0_ IFQ  --- 243 cbr 520 [0 1 0 800] ------- [0:0 1:0 30 1] [243] 0 0
D 0.088752273 _0_ IFQ  --- 244 cbr 520 [0 1 0 800] ------- [0:0 1:0 30 1] [244] 0 0
r 0.089099500 _1_ MAC  --- 28 cbr 520 [13a 1 0 800] ------- [0:0 1:0 30 1] [28] 1 0
s 0.089109500 _1_ MAC  --- 0 ACK 38 [0 0 0 0] 
D 0.089115909 _0_ IFQ  --- 245 cbr 520 [0 1 0 800] ------- [0:0 1:0 30 1] [245] 0 0
r 0.089414000 _0_ MAC  --- 0 ACK 38 [0 0 0 0] 
s 0.089484000 _0_ MAC  --- 29 cbr 578 [13a 1 0 800] ------- [0:0 1:0 30 1] [29] 0 0
D 0.089843182 _0_ IFQ  --- 247 cbr 520 [0 1 0 800] ------- [0:0 1:0 30 1] [247] 0 0
D 0.090206818 _0_ IFQ  --- 248 cbr 520 [0 1 0 800] ------- [0:0 1:0 30 1] [248] 0 0
D 0.090570455 _0_ IFQ  --- 249 cbr 520 [0 1 0 800] ------- [0:0 1:0 30 1] [249] 0 0
D 0.090934091 _0_ IFQ  --- 250 cbr 520 [0 1 0 800] ------- [0:0 1:0 30 1] [250] 0 0
D 0.091297727 _0_ IFQ  --- 251 cbr 520 [0 1 0 800] ------- [0:0 1:0 30 1] [251] 0 0
D 0.091661364 _0_ IFQ  --- 252 cbr 520 [0 1 0 800] ------- [0:0 1:0 30 1] [252] 0 0
D 0.092025000 _0_ IFQ  --- 253 cbr 520 [0 1 0 800] ------- [0:0 1:0 30 1] [253] 0 0
D 0.092388636 _0_ IFQ  --- 254 cbr 520 [0 1 0 800] ------- [0:0 1:0 30 1] [254] 0 0
D 0.092752273 _0_ IFQ  --- 255 cbr 520 [0 1 0 800] ------- [0:0 1:0 30 1] [255] 0 0
D 0.093115909 _0_ IFQ  --- 256 cbr 520 [0 1 0 800] ------- [0:0 1:0 30 1] [256] 0 0
D 0.093479545 _0_ IFQ  --- 257 cbr 520 [0 1 0 800] ------- [0:0 1:0 30 1] [257] 0 0
D 0.093843182 _0_ IFQ  --- 258 cbr 520 [0 1 0 800] ------- [0:0 1:0 30 1] [258] 0 0
r 0.094108500 _1_ MAC  --- 29 cbr 520 [13a 1 0 800] ------- [0:0 1:0 30 1] [29] 1 0
s 0.094118500 _1_ MAC  --- 0 ACK 38 [0 0 0 0] 
D 0.094206818 _0_ IFQ  --- 259 cbr 520 [0 1 0 800] ------- [0:0 1:0 30 1] [259] 0 0
r 0.094423000 _0_ MAC  --- 0 ACK 38 [0 0 0 0] 
s 0.094713000 _0_ MAC  --- 30 cbr 578 [13a 1 0 800] ------- [0:0 1:0 30 1] [30] 0 0
D 0.094934091 _0_ IFQ  --- 261 cbr 520 [0 1 0 800] ------- [0:0 1:0 30 1] [261] 0 0
D 0.095006000 _0_ IFQ  --- 9 cbr 520 [0 1 0 800] ------- [0:0 1:0 30 1] [9] 0 0
D 0.095297727 _0_ IFQ  --- 262 cbr 520 [0 1 0 800] ------- [0:0 1:0 30 1] [262] 0 0
D 0.095661364 _0_ IFQ  --- 263 cbr 520 [0 1 0 800] ------- [0:0 1:0 30 1] [263] 0 0
D 0.096025000 _0_ IFQ  --- 264 cbr 520 [0 1 0 800] ------- [0:0 1:0 30 1] [264] 0 0
D 0.096388636 _0_ IFQ  --- 265 cbr 520 [0 1 0 800] ------- [0:0 1:0 30 1] [265] 0 0
D 0.096752273 _0_ IFQ  --- 266 cbr 520 [0 1 0 800] ------- [0:0 1:0 30 1] [266] 0 0
D 0.097115909 _0_ IFQ  --- 267 cbr 520 [0 1 0 800] ------- [0:0 1:0 30 1] [267] 0 0
D 0.097479545 _0_ IFQ  --- 268 cbr 520 [0 1 0 800] ------- [0:0 1:0 30 1] [268] 0 0
D 0.097843182 _0_ IFQ  --- 269 cbr 520 [0 1 0 800] ------- [0:0 1:0 30 1] [269] 0 0
D 0.098206818 _0_ IFQ  --- 270 cbr 520 [0 1 0 800] ------- [0:0 1:0 30 1] [270] 0 0
D 0.098570455 _0_ IFQ  --- 271 cbr 520 [0 1 0 800] ------- [0:0 1:0 30 1] [271] 0 0
D 0.098934091 _0_ IFQ  --- 272 cbr 520 [0 1 0 800] ------- [0:0 1:0 30 1] [272] 0 0
D 0.099297727 _0_ IFQ  --- 273 cbr 520 [0 1 0 800] ------- [0:0 1:0 30 1] [273] 0 0
r 0.099337500 _1_ MAC  --- 30 cbr 520 [13a 1 0 800] ------- [0:0 1:0 30 1] [30] 1 0
s 0.099347500 _1_ MAC  --- 0 ACK 38 [0 0 0 0] 
r 0.099652000 _0_ MAC  --- 0 ACK 38 [0 0 0 0] 
D 0.100025000 _0_ IFQ  --- 275 cbr 520 [0 1 0 800] ------- [0:0 1:0 30 1] [275] 0 0
s 0.100142000 _0_ MAC  --- 31 cbr 578 [13a 1 0 800] ------- [0:0 1:0 30 1] [31] 0 0
D 0.100388636 _0_ IFQ  --- 276 cbr 520 [0 1 0 800] ------- [0:0 1:0 30 1] [276] 0 0
D 0.100752273 _0_ IFQ  --- 277 cbr 520 [0 1 0 800] ------- [0:0 1:0 30 1] [277] 0 0
D 0.101115909 _0_ IFQ  --- 278 cbr 520 [0 1 0 800] ------- [0:0 1:0 30 1] [278] 0 0
D 0.101479545 _0_ IFQ  --- 279 cbr 520 [0 1 0 800] ------- [0:0 1:0 30 1] [279] 0 0
D 0.101843182 _0_ IFQ  --- 280 cbr 520 [0 1 0 800] ------- [0:0 1:0 30 1] [280] 0 0
D 0.102206818 _0_ IFQ  --- 281 cbr 520 [0 1 0 800] ------- [0:0 1:0 30 1] [281] 0 0
D 0.102570455 _0_ IFQ  --- 282 cbr 520 [0 1 0 800] ------- [0:0 1:0 30 1] [282] 0 0
D 0.102934091 _0_ IFQ  --- 283 cbr 520 [0 1 0 800] ------- [0:0 1:0 30 1] [283] 0 0
D 0.103297727 _0_ IFQ  --- 284 cbr 520 [0 1 0 800] ------- [0:0 1:0 30 1] [284] 0 0
D 0.103661364 _0_ IFQ  --- 285 cbr 520 [0 1 0 800] ------- [0:0 1:0 30 1] [285] 0 0
D 0.104025000 _0_ IFQ  --- 286 cbr 520 [0 1 0 800] ------- [0:0 1:0 30 1] [286] 0 0
D 0.104388636 _0_ IFQ  --- 287 cbr 520 [0 1 0 800] ------- [0:0 1:0 30 1] [287] 0 0
D 0.104752273 _0_ IFQ  --- 288 cbr 520 [0 1 0 800] ------- [0:0 1:0 30 1] [288] 0 0
r 0.104766500 _1_ MAC  --- 31 cbr 520 [13a 1 0 800] ------- [0:0 1:0 30 1] [31] 1 0
s 0.104776500 _1_ MAC  --- 0 ACK 38 [0 0 0 0] 
D 0.105006000 _0_ IFQ  --- 10 cbr 520 [0 1 0 800] ------- [0:0 1:0 30 1] [10] 0 0
r 0.105081000 _0_ MAC  --- 0 ACK 38 [0 0 0 0] 
s 0.105311000 _0_ MAC  --- 32 cbr 578 [13a 1 0 800] ------- [0:0 1:0 30 1] [32] 0 0
D 0.105479545 _0_ IFQ  --- 290 cbr 520 [0 1 0 800] ------- [0:0 1:0 30 1] [290] 0 0
D 0.105843182 _0_ IFQ  --- 291 cbr 520 [0 1 0 800] ------- [0:0 1:0 30 1] [291] 0 0
D 0.106206818 _0_ IFQ  --- 292 cbr 520 [0 1 0 800] ------- [0:0 1:0 30 1] [292] 0 0
D 0.106570455 _0_ IFQ  --- 293 cbr 520 [0 1 0 800] ------- [0:0 1:0 30 1] [293] 0 0
D 0.106934091 _0_ IFQ  --- 294 cbr 520 [0 1 0 800] ------- [0:0 1:0 30 1] [294] 0 0
D 0.107297727 _0_ IFQ  --- 295 cbr 520 [0 1 0 800] ------- [0:0 1:0 30 1] [295] 0 0
D 0.107661364 _0_ IFQ  --- 296 cbr 520 [0 1 0 800] ------- [0:0 1:0 30 1] [296] 0 0
D 0.108025000 _0_ IFQ  --- 297 cbr 520 [0 1 0 800] ------- [0:0 1:0 30 1] [297] 0 0
D 0.108388636 _0_ IFQ  --- 298 cbr 520 [0 1 0 800] ------- [0:0 1:0 30 1] [298] 0 0
D 0.108752273 _0_ IFQ  --- 299 cbr 520 [0 1 0 800] ------- [0:0 1:0 30 1] [299] 0 0
D 0.109115909 _0_ IFQ  --- 300 cbr 520 [0 1 0 800] ------- [0:0 1:0 30 1] [300] 0 0
D 0.109479545 _0_ IFQ  --- 301 cbr 520 [0 1 0 800] ------- [0:0 1:0 30 1] [301] 0 0
D 0.109843182 _0_ IFQ  --- 302 cbr 520 [0 1 0 800] ------- [0:0 1:0 30 1] [302] 0 0
r 0.109935500 _1_ MAC  --- 32 cbr 520 [13a 1 0 800] ------- [0:0 1:0 30 1] [32] 1 0
s 0.109945500 _1_ MAC  --- 0 ACK 38 [0 0 0 0] 
D 0.110206818 _0_ IFQ  --- 303 cbr 520 [0 1 0 800] ------- [0:0 1:0 30 1] [303] 0 0
r 0.110250000 _0_ MAC  --- 0 ACK 38 [0 0 0 0] 
s 0.110880000 _0_ MAC  --- 33 cbr 578 [13a 1 0 800] ------- [0:0 1:0 30 1] [33] 0 0
D 0.110934091 _0_ IFQ  --- 305 cbr 520 [0 1 0 800] ------- [0:0 1:0 30 1] [305] 0 0
D 0.111297727 _0_ IFQ  --- 306 cbr 520 [0 1 0 800] ------- [0:0 1:0 30 1] [306] 0 0
D 0.111661364 _0_ IFQ  --- 307 cbr 520 [0 1 0 800] ------- [0:0 1:0 30 1] [307] 0 0
D 0.112025000 _0_ IFQ  --- 308 cbr 520 [0 1 0 800] ------- [0:0 1:0 30 1] [308] 0 0
D 0.112388636 _0_ IFQ  --- 309 cbr 520 [0 1 0 800] ------- [0:0 1:0 30 1] [309] 0 0
D 0.112752273 _0_ IFQ  --- 310 cbr 520 [0 1 0 800] ------- [0:0 1:0 30 1] [310] 0 0
D 0.113115909 _0_ IFQ  --- 311 cbr 520 [0 1 0 800] ------- [0:0 1:0 30 1] [311] 0 0
D 0.113479545 _0_ IFQ  --- 312 cbr 520 [0 1 0 800] ------- [0:0 1:0 30 1] [312] 0 0
D 0.113843182 _0_ IFQ  --- 313 cbr 520 [0 1 0 800] ------- [0:0 1:0 30 1] [313] 0 0
D 0.114206818 _0_ IFQ  --- 314 cbr 520 [0 1 0 800] ------- [0:0 1:0 30 1] [314] 0 0
D 0.114570455 _0_ IFQ  --- 315 cbr 520 [0 1 0 800] ------- [0:0 1:0 30 1] [315] 0 0
D 0.114934091 _0_ IFQ  --- 316 cbr 520 [0 1 0 800] ------- [0:0 1:0 30 1] [316] 0 0
D 0.115006000 _0_ IFQ  --- 11 cbr 520 [0 1 0 800] ------- [0:0 1:0 30 1] [11] 0 0
D 0.115297727 _0_ IFQ  --- 317 cbr 520 [0 1 0 800] ------- [0:0 1:0 30 1] [317] 0 0
r 0.115504500 _1_ MAC  --- 33 cbr 520 [13a 1 0 800] ------- [0:0 1:0 30 1] [33] 1 0
s 0.115514500 _1_ MAC  --- 0 ACK 38 [0 0 0 0] 
D 0.115661364 _0_ IFQ  --- 318 cbr 520 [0 1 0 800] ------- [0:0 1:0 30 1] [318] 0 0
r 0.115819000 _0_ MAC  --- 0 ACK 38 [0 0 0 0] 
s 0.116269000 _0_ MAC  --- 43 cbr 578 [13a 1 0 800] ------- [0:0 1:0 30 1] [43] 0 0
D 0.116388636 _0_ IFQ  --- 320 cbr 520 [0 1 0 800] ------- [0:0 1:0 30 1] [320] 0 0
D 0.116752273 _0_ IFQ  --- 321 cbr 520 [0 1 0 800] ------- [0:0 1:0 30 1] [321] 0 0
D 0.117115909 _0_ IFQ  --- 322 cbr 520 [0 1 0 800] ------- [0:0 1:0 30 1] [322] 0 0
D 0.117479545 _0_ IFQ  --- 323 cbr 520 [0 1 0 800] ------- [0:0 1:0 30 1] [323] 0 0