+ 0 0 2 tcp 40 ------- 0 0.0 3.0 0 0
- 0 0 2 tcp 40 ------- 0 0.0 3.0 0 0
+ 0 1 2 tcp 40 ------- 0 1.0 4.0 0 1
- 0 1 2 tcp 40 ------- 0 1.0 4.0 0 1
r 0.01032 0 2 tcp 40 ------- 0 0.0 3.0 0 0
+ 0.01032 2 3 tcp 40 ------- 0 0.0 3.0 0 0
- 0.01032 2 3 tcp 40 ------- 0 0.0 3.0 0 0
r 0.01032 1 2 tcp 40 ------- 0 1.0 4.0 0 1
+ 0.01032 2 4 tcp 40 ------- 0 1.0 4.0 0 1
- 0.01032 2 4 tcp 40 ------- 0 1.0 4.0 0 1
r 0.02064 2 3 tcp 40 ------- 0 0.0 3.0 0 0
+ 0.02064 3 2 ack 40 ------- 0 3.0 0.0 0 2
- 0.02064 3 2 ack 40 ------- 0 3.0 0.0 0 2
r 0.03096 3 2 ack 40 ------- 0 3.0 0.0 0 2
+ 0.03096 2 0 ack 40 ------- 0 3.0 0.0 0 2
- 0.03096 2 0 ack 40 ------- 0 3.0 0.0 0 2
r 0.04128 2 0 ack 40 ------- 0 3.0 0.0 0 2
+ 0.04128 0 2 tcp 1040 ------- 0 0.0 3.0 1 3
- 0.04128 0 2 tcp 1040 ------- 0 0.0 3.0 1 3
+ 0.04128 0 2 tcp 1040 ------- 0 0.0 3.0 2 4
- 0.0496 0 2 tcp 1040 ------- 0 0.0 3.0 2 4
r 0.0596 0 2 tcp 1040 ------- 0 0.0 3.0 1 3
+ 0.0596 2 3 tcp 1040 ------- 0 0.0 3.0 1 3
- 0.0596 2 3 tcp 1040 ------- 0 0.0 3.0 1 3
r 0.06064 2 4 tcp 40 ------- 0 1.0 4.0 0 1
+ 0.06064 4 2 ack 40 ------- 0 4.0 1.0 0 5
- 0.06064 4 2 ack 40 ------- 0 4.0 1.0 0 5
r 0.06792 0 2 tcp 1040 ------- 0 0.0 3.0 2 4
+ 0.06792 2 3 tcp 1040 ------- 0 0.0 3.0 2 4
- 0.06792 2 3 tcp 1040 ------- 0 0.0 3.0 2 4
r 0.07792 2 3 tcp 1040 ------- 0 0.0 3.0 1 3
+ 0.07792 3 2 ack 40 ------- 0 3.0 0.0 1 6
- 0.07792 3 2 ack 40 ------- 0 3.0 0.0 1 6
r 0.08624 2 3 tcp 1040 ------- 0 0.0 3.0 2 4
+ 0.08624 3 2 ack 40 ------- 0 3.0 0.0 2 7
- 0.08624 3 2 ack 40 ------- 0 3.0 0.0 2 7
r 0.08824 3 2 ack 40 ------- 0 3.0 0.0 1 6
+ 0.08824 2 0 ack 40 ------- 0 3.0 0.0 1 6
- 0.08824 2 0 ack 40 ------- 0 3.0 0.0 1 6
r 0.09656 3 2 ack 40 ------- 0 3.0 0.0 2 7
+ 0.09656 2 0 ack 40 ------- 0 3.0 0.0 2 7
- 0.09656 2 0 ack 40 ------- 0 3.0 0.0 2 7
r 0.09856 2 0 ack 40 ------- 0 3.0 0.0 1 6
+ 0.09856 0 2 tcp 1040 ------- 0 0.0 3.0 3 8
- 0.09856 0 2 tcp 1040 ------- 0 0.0 3.0 3 8
+ 0.09856 0 2 tcp 1040 ------- 0 0.0 3.0 4 9
- 0.10688 0 2 tcp 1040 ------- 0 0.0 3.0 4 9
r 0.10688 2 0 ack 40 ------- 0 3.0 0.0 2 7
+ 0.10688 0 2 tcp 1040 ------- 0 0.0 3.0 5 10
+ 0.10688 0 2 tcp 1040 ------- 0 0.0 3.0 6 11
r 0.11096 4 2 ack 40 ------- 0 4.0 1.0 0 5
+ 0.11096 2 1 ack 40 ------- 0 4.0 1.0 0 5
- 0.11096 2 1 ack 40 ------- 0 4.0 1.0 0 5
- 0.1152 0 2 tcp 1040 ------- 0 0.0 3.0 5 10
r 0.11688 0 2 tcp 1040 ------- 0 0.0 3.0 3 8
+ 0.11688 2 3 tcp 1040 ------- 0 0.0 3.0 3 8
- 0.11688 2 3 tcp 1040 ------- 0 0.0 3.0 3 8
r 0.12128 2 1 ack 40 ------- 0 4.0 1.0 0 5
+ 0.12128 1 2 tcp 1040 ------- 0 1.0 4.0 1 12
- 0.12128 1 2 tcp 1040 ------- 0 1.0 4.0 1 12
+ 0.12128 1 2 tcp 1040 ------- 0 1.0 4.0 2 13
- 0.12352 0 2 tcp 1040 ------- 0 0.0 3.0 6 11
r 0.1252 0 2 tcp 1040 ------- 0 0.0 3.0 4 9
+ 0.1252 2 3 tcp 1040 ------- 0 0.0 3.0 4 9
- 0.1252 2 3 tcp 1040 ------- 0 0.0 3.0 4 9
- 0.1296 1 2 tcp 1040 ------- 0 1.0 4.0 2 13
r 0.13352 0 2 tcp 1040 ------- 0 0.0 3.0 5 10
+ 0.13352 2 3 tcp 1040 ------- 0 0.0 3.0 5 10
- 0.13352 2 3 tcp 1040 ------- 0 0.0 3.0 5 10
r 0.1352 2 3 tcp 1040 ------- 0 0.0 3.0 3 8
+ 0.1352 3 2 ack 40 ------- 0 3.0 0.0 3 14
- 0.1352 3 2 ack 40 ------- 0 3.0 0.0 3 14
r 0.1396 1 2 tcp 1040 ------- 0 1.0 4.0 1 12
+ 0.1396 2 4 tcp 1040 ------- 0 1.0 4.0 1 12
- 0.1396 2 4 tcp 1040 ------- 0 1.0 4.0 1 12
r 0.14184 0 2 tcp 1040 ------- 0 0.0 3.0 6 11
+ 0.14184 2 3 tcp 1040 ------- 0 0.0 3.0 6 11
- 0.14184 2 3 tcp 1040 ------- 0 0.0 3.0 6 11
r 0.14352 2 3 tcp 1040 ------- 0 0.0 3.0 4 9
+ 0.14352 3 2 ack 40 ------- 0 3.0 0.0 4 15
- 0.14352 3 2 ack 40 ------- 0 3.0 0.0 4 15
r 0.14552 3 2 ack 40 ------- 0 3.0 0.0 3 14
+ 0.14552 2 0 ack 40 ------- 0 3.0 0.0 3 14
- 0.14552 2 0 ack 40 ------- 0 3.0 0.0 3 14
r 0.14792 1 2 tcp 1040 ------- 0 1.0 4.0 2 13
+ 0.14792 2 4 tcp 1040 ------- 0 1.0 4.0 2 13
- 0.14792 2 4 tcp 1040 ------- 0 1.0 4.0 2 13
r 0.15184 2 3 tcp 1040 ------- 0 0.0 3.0 5 10
+ 0.15184 3 2 ack 40 ------- 0 3.0 0.0 5 16
- 0.15184 3 2 ack 40 ------- 0 3.0 0.0 5 16
r 0.15384 3 2 ack 40 ------- 0 3.0 0.0 4 15
+ 0.15384 2 0 ack 40 ------- 0 3.0 0.0 4 15
- 0.15384 2 0 ack 40 ------- 0 3.0 0.0 4 15
r 0.15584 2 0 ack 40 ------- 0 3.0 0.0 3 14
+ 0.15584 0 2 tcp 1040 ------- 0 0.0 3.0 7 17
- 0.15584 0 2 tcp 1040 ------- 0 0.0 3.0 7 17
+ 0.15584 0 2 tcp 1040 ------- 0 0.0 3.0 8 18
r 0.16016 2 3 tcp 1040 ------- 0 0.0 3.0 6 11
+ 0.16016 3 2 ack 40 ------- 0 3.0 0.0 6 19
- 0.16016 3 2 ack 40 ------- 0 3.0 0.0 6 19
r 0.16216 3 2 ack 40 ------- 0 3.0 0.0 5 16
+ 0.16216 2 0 ack 40 ------- 0 3.0 0.0 5 16
- 0.16216 2 0 ack 40 ------- 0 3.0 0.0 5 16
- 0.16416 0 2 tcp 1040 ------- 0 0.0 3.0 8 18
r 0.16416 2 0 ack 40 ------- 0 3.0 0.0 4 15
+ 0.16416 0 2 tcp 1040 ------- 0 0.0 3.0 9 20
+ 0.16416 0 2 tcp 1040 ------- 0 0.0 3.0 10 21
r 0.17048 3 2 ack 40 ------- 0 3.0 0.0 6 19
+ 0.17048 2 0 ack 40 ------- 0 3.0 0.0 6 19
- 0.17048 2 0 ack 40 ------- 0 3.0 0.0 6 19
- 0.17248 0 2 tcp 1040 ------- 0 0.0 3.0 9 20
r 0.17248 2 0 ack 40 ------- 0 3.0 0.0 5 16
+ 0.17248 0 2 tcp 1040 ------- 0 0.0 3.0 11 22
+ 0.17248 0 2 tcp 1040 ------- 0 0.0 3.0 12 23
r 0.17416 0 2 tcp 1040 ------- 0 0.0 3.0 7 17
+ 0.17416 2 3 tcp 1040 ------- 0 0.0 3.0 7 17
- 0.17416 2 3 tcp 1040 ------- 0 0.0 3.0 7 17
- 0.1808 0 2 tcp 1040 ------- 0 0.0 3.0 10 21
r 0.1808 2 0 ack 40 ------- 0 3.0 0.0 6 19
+ 0.1808 0 2 tcp 1040 ------- 0 0.0 3.0 13 24
+ 0.1808 0 2 tcp 1040 ------- 0 0.0 3.0 14 25
r 0.18248 0 2 tcp 1040 ------- 0 0.0 3.0 8 18
+ 0.18248 2 3 tcp 1040 ------- 0 0.0 3.0 8 18
- 0.18248 2 3 tcp 1040 ------- 0 0.0 3.0 8 18
- 0.18912 0 2 tcp 1040 ------- 0 0.0 3.0 11 22
r 0.1908 0 2 tcp 1040 ------- 0 0.0 3.0 9 20
+ 0.1908 2 3 tcp 1040 ------- 0 0.0 3.0 9 20
- 0.1908 2 3 tcp 1040 ------- 0 0.0 3.0 9 20
r 0.19248 2 3 tcp 1040 ------- 0 0.0 3.0 7 17
+ 0.19248 3 2 ack 40 ------- 0 3.0 0.0 7 26
- 0.19248 3 2 ack 40 ------- 0 3.0 0.0 7 26
- 0.19744 0 2 tcp 1040 ------- 0 0.0 3.0 12 23
r 0.19792 2 4 tcp 1040 ------- 0 1.0 4.0 1 12
+ 0.19792 4 2 ack 40 ------- 0 4.0 1.0 1 27
- 0.19792 4 2 ack 40 ------- 0 4.0 1.0 1 27
r 0.19912 0 2 tcp 1040 ------- 0 0.0 3.0 10 21
+ 0.19912 2 3 tcp 1040 ------- 0 0.0 3.0 10 21
- 0.19912 2 3 tcp 1040 ------- 0 0.0 3.0 10 21
r 0.2008 2 3 tcp 1040 ------- 0 0.0 3.0 8 18
+ 0.2008 3 2 ack 40 ------- 0 3.0 0.0 8 28
- 0.2008 3 2 ack 40 ------- 0 3.0 0.0 8 28
r 0.2028 3 2 ack 40 ------- 0 3.0 0.0 7 26
+ 0.2028 2 0 ack 40 ------- 0 3.0 0.0 7 26
- 0.2028 2 0 ack 40 ------- 0 3.0 0.0 7 26
- 0.20576 0 2 tcp 1040 ------- 0 0.0 3.0 13 24
r 0.20624 2 4 tcp 1040 ------- 0 1.0 4.0 2 13
+ 0.20624 4 2 ack 40 ------- 0 4.0 1.0 2 29
- 0.20624 4 2 ack 40 ------- 0 4.0 1.0 2 29
r 0.20744 0 2 tcp 1040 ------- 0 0.0 3.0 11 22
+ 0.20744 2 3 tcp 1040 ------- 0 0.0 3.0 11 22
- 0.20744 2 3 tcp 1040 ------- 0 0.0 3.0 11 22
r 0.20912 2 3 tcp 1040 ------- 0 0.0 3.0 9 20
+ 0.20912 3 2 ack 40 ------- 0 3.0 0.0 9 30
- 0.20912 3 2 ack 40 ------- 0 3.0 0.0 9 30
r 0.21112 3 2 ack 40 ------- 0 3.0 0.0 8 28
+ 0.21112 2 0 ack 40 ------- 0 3.0 0.0 8 28
- 0.21112 2 0 ack 40 ------- 0 3.0 0.0 8 28
r 0.21312 2 0 ack 40 ------- 0 3.0 0.0 7 26
+ 0.21312 0 2 tcp 1040 ------- 0 0.0 3.0 15 31
+ 0.21312 0 2 tcp 1040 ------- 0 0.0 3.0 16 32
- 0.21408 0 2 tcp 1040 ------- 0 0.0 3.0 14 25
r 0.21576 0 2 tcp 1040 ------- 0 0.0 3.0 12 23
+ 0.21576 2 3 tcp 1040 ------- 0 0.0 3.0 12 23
- 0.21576 2 3 tcp 1040 ------- 0 0.0 3.0 12 23
r 0.21744 2 3 tcp 1040 ------- 0 0.0 3.0 10 21
+ 0.21744 3 2 ack 40 ------- 0 3.0 0.0 10 33
- 0.21744 3 2 ack 40 ------- 0 3.0 0.0 10 33
r 0.21944 3 2 ack 40 ------- 0 3.0 0.0 9 30
+ 0.21944 2 0 ack 40 ------- 0 3.0 0.0 9 30
- 0.21944 2 0 ack 40 ------- 0 3.0 0.0 9 30
r 0.22144 2 0 ack 40 ------- 0 3.0 0.0 8 28
+ 0.22144 0 2 tcp 1040 ------- 0 0.0 3.0 17 34
+ 0.22144 0 2 tcp 1040 ------- 0 0.0 3.0 18 35
- 0.2224 0 2 tcp 1040 ------- 0 0.0 3.0 15 31
r 0.22408 0 2 tcp 1040 ------- 0 0.0 3.0 13 24
+ 0.22408 2 3 tcp 1040 ------- 0 0.0 3.0 13 24
- 0.22408 2 3 tcp 1040 ------- 0 0.0 3.0 13 24
r 0.22576 2 3 tcp 1040 ------- 0 0.0 3.0 11 22
+ 0.22576 3 2 ack 40 ------- 0 3.0 0.0 11 36
- 0.22576 3 2 ack 40 ------- 0 3.0 0.0 11 36
r 0.22776 3 2 ack 40 ------- 0 3.0 0.0 10 33
+ 0.22776 2 0 ack 40 ------- 0 3.0 0.0 10 33
- 0.22776 2 0 ack 40 ------- 0 3.0 0.0 10 33
r 0.22976 2 0 ack 40 ------- 0 3.0 0.0 9 30
+ 0.22976 0 2 tcp 1040 ------- 0 0.0 3.0 19 37
+ 0.22976 0 2 tcp 1040 ------- 0 0.0 3.0 20 38
- 0.23072 0 2 tcp 1040 ------- 0 0.0 3.0 16 32
r 0.2324 0 2 tcp 1040 ------- 0 0.0 3.0 14 25
+ 0.2324 2 3 tcp 1040 ------- 0 0.0 3.0 14 25
- 0.2324 2 3 tcp 1040 ------- 0 0.0 3.0 14 25
r 0.23408 2 3 tcp 1040 ------- 0 0.0 3.0 12 23
+ 0.23408 3 2 ack 40 ------- 0 3.0 0.0 12 39
- 0.23408 3 2 ack 40 ------- 0 3.0 0.0 12 39
r 0.23608 3 2 ack 40 ------- 0 3.0 0.0 11 36
+ 0.23608 2 0 ack 40 ------- 0 3.0 0.0 11 36
- 0.23608 2 0 ack 40 ------- 0 3.0 0.0 11 36
r 0.23808 2 0 ack 40 ------- 0 3.0 0.0 10 33
+ 0.23808 0 2 tcp 1040 ------- 0 0.0 3.0 21 40
+ 0.23808 0 2 tcp 1040 ------- 0 0.0 3.0 22 41
- 0.23904 0 2 tcp 1040 ------- 0 0.0 3.0 17 34
r 0.24072 0 2 tcp 1040 ------- 0 0.0 3.0 15 31
+ 0.24072 2 3 tcp 1040 ------- 0 0.0 3.0 15 31
- 0.24072 2 3 tcp 1040 ------- 0 0.0 3.0 15 31
r 0.2424 2 3 tcp 1040 ------- 0 0.0 3.0 13 24
+ 0.2424 3 2 ack 40 ------- 0 3.0 0.0 13 42
- 0.2424 3 2 ack 40 ------- 0 3.0 0.0 13 42
r 0.2444 3 2 ack 40 ------- 0 3.0 0.0 12 39
+ 0.2444 2 0 ack 40 ------- 0 3.0 0.0 12 39
- 0.2444 2 0 ack 40 ------- 0 3.0 0.0 12 39
r 0.2464 2 0 ack 40 ------- 0 3.0 0.0 11 36
+ 0.2464 0 2 tcp 1040 ------- 0 0.0 3.0 23 43
+ 0.2464 0 2 tcp 1040 ------- 0 0.0 3.0 24 44
- 0.24736 0 2 tcp 1040 ------- 0 0.0 3.0 18 35
r 0.24824 4 2 ack 40 ------- 0 4.0 1.0 1 27
+ 0.24824 2 1 ack 40 ------- 0 4.0 1.0 1 27
- 0.24824 2 1 ack 40 ------- 0 4.0 1.0 1 27
r 0.24904 0 2 tcp 1040 ------- 0 0.0 3.0 16 32
+ 0.24904 2 3 tcp 1040 ------- 0 0.0 3.0 16 32
- 0.24904 2 3 tcp 1040 ------- 0 0.0 3.0 16 32
r 0.25072 2 3 tcp 1040 ------- 0 0.0 3.0 14 25
+ 0.25072 3 2 ack 40 ------- 0 3.0 0.0 14 45
- 0.25072 3 2 ack 40 ------- 0 3.0 0.0 14 45
r 0.25272 3 2 ack 40 ------- 0 3.0 0.0 13 42
+ 0.25272 2 0 ack 40 ------- 0 3.0 0.0 13 42
- 0.25272 2 0 ack 40 ------- 0 3.0 0.0 13 42
r 0.25472 2 0 ack 40 ------- 0 3.0 0.0 12 39
+ 0.25472 0 2 tcp 1040 ------- 0 0.0 3.0 25 46
+ 0.25472 0 2 tcp 1040 ------- 0 0.0 3.0 26 47
- 0.25568 0 2 tcp 1040 ------- 0 0.0 3.0 19 37
r 0.25656 4 2 ack 40 ------- 0 4.0 1.0 2 29
+ 0.25656 2 1 ack 40 ------- 0 4.0 1.0 2 29
- 0.25656 2 1 ack 40 ------- 0 4.0 1.0 2 29
r 0.25736 0 2 tcp 1040 ------- 0 0.0 3.0 17 34
+ 0.25736 2 3 tcp 1040 ------- 0 0.0 3.0 17 34
- 0.25736 2 3 tcp 1040 ------- 0 0.0 3.0 17 34
r 0.25856 2 1 ack 40 ------- 0 4.0 1.0 1 27
+ 0.25856 1 2 tcp 1040 ------- 0 1.0 4.0 3 48
- 0.25856 1 2 tcp 1040 ------- 0 1.0 4.0 3 48
+ 0.25856 1 2 tcp 1040 ------- 0 1.0 4.0 4 49
r 0.25904 2 3 tcp 1040 ------- 0 0.0 3.0 15 31
+ 0.25904 3 2 ack 40 ------- 0 3.0 0.0 15 50
- 0.25904 3 2 ack 40 ------- 0 3.0 0.0 15 50
r 0.26104 3 2 ack 40 ------- 0 3.0 0.0 14 45
+ 0.26104 2 0 ack 40 ------- 0 3.0 0.0 14 45
- 0.26104 2 0 ack 40 ------- 0 3.0 0.0 14 45
r 0.26304 2 0 ack 40 ------- 0 3.0 0.0 13 42
+ 0.26304 0 2 tcp 1040 ------- 0 0.0 3.0 27 51
+ 0.26304 0 2 tcp 1040 ------- 0 0.0 3.0 28 52
- 0.264 0 2 tcp 1040 ------- 0 0.0 3.0 20 38
r 0.26568 0 2 tcp 1040 ------- 0 0.0 3.0 18 35
+ 0.26568 2 3 tcp 1040 ------- 0 0.0 3.0 18 35
- 0.26568 2 3 tcp 1040 ------- 0 0.0 3.0 18 35
r 0.26688 2 1 ack 40 ------- 0 4.0 1.0 2 29
+ 0.26688 1 2 tcp 1040 ------- 0 1.0 4.0 5 53
+ 0.26688 1 2 tcp 1040 ------- 0 1.0 4.0 6 54
- 0.26688 1 2 tcp 1040 ------- 0 1.0 4.0 4 49
r 0.26736 2 3 tcp 1040 ------- 0 0.0 3.0 16 32
+ 0.26736 3 2 ack 40 ------- 0 3.0 0.0 16 55
- 0.26736 3 2 ack 40 ------- 0 3.0 0.0 16 55
r 0.26936 3 2 ack 40 ------- 0 3.0 0.0 15 50
+ 0.26936 2 0 ack 40 ------- 0 3.0 0.0 15 50
- 0.26936 2 0 ack 40 ------- 0 3.0 0.0 15 50
r 0.27136 2 0 ack 40 ------- 0 3.0 0.0 14 45
+ 0.27136 0 2 tcp 1040 ------- 0 0.0 3.0 29 56
+ 0.27136 0 2 tcp 1040 ------- 0 0.0 3.0 30 57
- 0.27232 0 2 tcp 1040 ------- 0 0.0 3.0 21 40
r 0.274 0 2 tcp 1040 ------- 0 0.0 3.0 19 37
+ 0.274 2 3 tcp 1040 ------- 0 0.0 3.0 19 37
- 0.274 2 3 tcp 1040 ------- 0 0.0 3.0 19 37
- 0.2752 1 2 tcp 1040 ------- 0 1.0 4.0 5 53
r 0.27568 2 3 tcp 1040 ------- 0 0.0 3.0 17 34
+ 0.27568 3 2 ack 40 ------- 0 3.0 0.0 17 58
- 0.27568 3 2 ack 40 ------- 0 3.0 0.0 17 58
r 0.27688 1 2 tcp 1040 ------- 0 1.0 4.0 3 48
+ 0.27688 2 4 tcp 1040 ------- 0 1.0 4.0 3 48
- 0.27688 2 4 tcp 1040 ------- 0 1.0 4.0 3 48
r 0.27768 3 2 ack 40 ------- 0 3.0 0.0 16 55
+ 0.27768 2 0 ack 40 ------- 0 3.0 0.0 16 55
- 0.27768 2 0 ack 40 ------- 0 3.0 0.0 16 55
r 0.27968 2 0 ack 40 ------- 0 3.0 0.0 15 50
+ 0.27968 0 2 tcp 1040 ------- 0 0.0 3.0 31 59
+ 0.27968 0 2 tcp 1040 ------- 0 0.0 3.0 32 60
- 0.28064 0 2 tcp 1040 ------- 0 0.0 3.0 22 41
r 0.28232 0 2 tcp 1040 ------- 0 0.0 3.0 20 38
+ 0.28232 2 3 tcp 1040 ------- 0 0.0 3.0 20 38
- 0.28232 2 3 tcp 1040 ------- 0 0.0 3.0 20 38
- 0.28352 1 2 tcp 1040 ------- 0 1.0 4.0 6 54
r 0.284 2 3 tcp 1040 ------- 0 0.0 3.0 18 35
+ 0.284 3 2 ack 40 ------- 0 3.0 0.0 18 61
- 0.284 3 2 ack 40 ------- 0 3.0 0.0 18 61
r 0.2852 1 2 tcp 1040 ------- 0 1.0 4.0 4 49
+ 0.2852 2 4 tcp 1040 ------- 0 1.0 4.0 4 49
- 0.2852 2 4 tcp 1040 ------- 0 1.0 4.0 4 49
r 0.286 3 2 ack 40 ------- 0 3.0 0.0 17 58
+ 0.286 2 0 ack 40 ------- 0 3.0 0.0 17 58
- 0.286 2 0 ack 40 ------- 0 3.0 0.0 17 58
r 0.288 2 0 ack 40 ------- 0 3.0 0.0 16 55
+ 0.288 0 2 tcp 1040 ------- 0 0.0 3.0 33 62
+ 0.288 0 2 tcp 1040 ------- 0 0.0 3.0 34 63
- 0.28896 0 2 tcp 1040 ------- 0 0.0 3.0 23 43
r 0.29064 0 2 tcp 1040 ------- 0 0.0 3.0 21 40
+ 0.29064 2 3 tcp 1040 ------- 0 0.0 3.0 21 40
- 0.29064 2 3 tcp 1040 ------- 0 0.0 3.0 21 40
r 0.29232 2 3 tcp 1040 ------- 0 0.0 3.0 19 37
+ 0.29232 3 2 ack 40 ------- 0 3.0 0.0 19 64
- 0.29232 3 2 ack 40 ------- 0 3.0 0.0 19 64
r 0.29352 1 2 tcp 1040 ------- 0 1.0 4.0 5 53
+ 0.29352 2 4 tcp 1040 ------- 0 1.0 4.0 5 53
- 0.29352 2 4 tcp 1040 ------- 0 1.0 4.0 5 53
r 0.29432 3 2 ack 40 ------- 0 3.0 0.0 18 61
+ 0.29432 2 0 ack 40 ------- 0 3.0 0.0 18 61
- 0.29432 2 0 ack 40 ------- 0 3.0 0.0 18 61
r 0.29632 2 0 ack 40 ------- 0 3.0 0.0 17 58
+ 0.29632 0 2 tcp 1040 ------- 0 0.0 3.0 35 65
+ 0.29632 0 2 tcp 1040 ------- 0 0.0 3.0 36 66
- 0.29728 0 2 tcp 1040 ------- 0 0.0 3.0 24 44
r 0.29896 0 2 tcp 1040 ------- 0 0.0 3.0 22 41
+ 0.29896 2 3 tcp 1040 ------- 0 0.0 3.0 22 41
- 0.29896 2 3 tcp 1040 ------- 0 0.0 3.0 22 41
r 0.30064 2 3 tcp 1040 ------- 0 0.0 3.0 20 38
+ 0.30064 3 2 ack 40 ------- 0 3.0 0.0 20 67
- 0.30064 3 2 ack 40 ------- 0 3.0 0.0 20 67
r 0.30184 1 2 tcp 1040 ------- 0 1.0 4.0 6 54
+ 0.30184 2 4 tcp 1040 ------- 0 1.0 4.0 6 54
- 0.30184 2 4 tcp 1040 ------- 0 1.0 4.0 6 54
r 0.30264 3 2 ack 40 ------- 0 3.0 0.0 19 64
+ 0.30264 2 0 ack 40 ------- 0 3.0 0.0 19 64
- 0.30264 2 0 ack 40 ------- 0 3.0 0.0 19 64
r 0.30464 2 0 ack 40 ------- 0 3.0 0.0 18 61
+ 0.30464 0 2 tcp 1040 ------- 0 0.0 3.0 37 68
+ 0.30464 0 2 tcp 1040 ------- 0 0.0 3.0 38 69
- 0.3056 0 2 tcp 1040 ------- 0 0.0 3.0 25 46
r 0.30728 0 2 tcp 1040 ------- 0 0.0 3.0 23 43
+ 0.30728 2 3 tcp 1040 ------- 0 0.0 3.0 23 43
- 0.30728 2 3 tcp 1040 ------- 0 0.0 3.0 23 43
r 0.30896 2 3 tcp 1040 ------- 0 0.0 3.0 21 40
+ 0.30896 3 2 ack 40 ------- 0 3.0 0.0 21 70
- 0.30896 3 2 ack 40 ------- 0 3.0 0.0 21 70
r 0.31096 3 2 ack 40 ------- 0 3.0 0.0 20 67
+ 0.31096 2 0 ack 40 ------- 0 3.0 0.0 20 67
- 0.31096 2 0 ack 40 ------- 0 3.0 0.0 20 67
r 0.31296 2 0 ack 40 ------- 0 3.0 0.0 19 64
+ 0.31296 0 2 tcp 1040 ------- 0 0.0 3.0 39 71
- 0.31392 0 2 tcp 1040 ------- 0 0.0 3.0 26 47
r 0.3156 0 2 tcp 1040 ------- 0 0.0 3.0 24 44
+ 0.3156 2 3 tcp 1040 ------- 0 0.0 3.0 24 44
- 0.3156 2 3 tcp 1040 ------- 0 0.0 3.0 24 44
r 0.31728 2 3 tcp 1040 ------- 0 0.0 3.0 22 41
+ 0.31728 3 2 ack 40 ------- 0 3.0 0.0 22 72
- 0.31728 3 2 ack 40 ------- 0 3.0 0.0 22 72
r 0.31928 3 2 ack 40 ------- 0 3.0 0.0 21 70
+ 0.31928 2 0 ack 40 ------- 0 3.0 0.0 21 70
- 0.31928 2 0 ack 40 ------- 0 3.0 0.0 21 70
r 0.32128 2 0 ack 40 ------- 0 3.0 0.0 20 67
+ 0.32128 0 2 tcp 1040 ------- 0 0.0 3.0 40 73
- 0.32224 0 2 tcp 1040 ------- 0 0.0 3.0 27 51
r 0.32392 0 2 tcp 1040 ------- 0 0.0 3.0 25 46
+ 0.32392 2 3 tcp 1040 ------- 0 0.0 3.0 25 46
- 0.32392 2 3 tcp 1040 ------- 0 0.0 3.0 25 46
r 0.3256 2 3 tcp 1040 ------- 0 0.0 3.0 23 43
+ 0.3256 3 2 ack 40 ------- 0 3.0 0.0 23 74
- 0.3256 3 2 ack 40 ------- 0 3.0 0.0 23 74
r 0.3276 3 2 ack 40 ------- 0 3.0 0.0 22 72
+ 0.3276 2 0 ack 40 ------- 0 3.0 0.0 22 72
- 0.3276 2 0 ack 40 ------- 0 3.0 0.0 22 72
r 0.3296 2 0 ack 40 ------- 0 3.0 0.0 21 70
+ 0.3296 0 2 tcp 1040 ------- 0 0.0 3.0 41 75
- 0.33056 0 2 tcp 1040 ------- 0 0.0 3.0 28 52
r 0.33224 0 2 tcp 1040 ------- 0 0.0 3.0 26 47
+ 0.33224 2 3 tcp 1040 ------- 0 0.0 3.0 26 47
- 0.33224 2 3 tcp 1040 ------- 0 0.0 3.0 26 47
r 0.33392 2 3 tcp 1040 ------- 0 0.0 3.0 24 44
+ 0.33392 3 2 ack 40 ------- 0 3.0 0.0 24 76
- 0.33392 3 2 ack 40 ------- 0 3.0 0.0 24 76
r 0.3352 2 4 tcp 1040 ------- 0 1.0 4.0 3 48
+ 0.3352 4 2 ack 40 ------- 0 4.0 1.0 3 77
- 0.3352 4 2 ack 40 ------- 0 4.0 1.0 3 77
r 0.33592 3 2 ack 40 ------- 0 3.0 0.0 23 74
+ 0.33592 2 0 ack 40 ------- 0 3.0 0.0 23 74
- 0.33592 2 0 ack 40 ------- 0 3.0 0.0 23 74
r 0.33792 2 0 ack 40 ------- 0 3.0 0.0 22 72
+ 0.33792 0 2 tcp 1040 ------- 0 0.0 3.0 42 78
- 0.33888 0 2 tcp 1040 ------- 0 0.0 3.0 29 56
r 0.34056 0 2 tcp 1040 ------- 0 0.0 3.0 27 51
+ 0.34056 2 3 tcp 1040 ------- 0 0.0 3.0 27 51
- 0.34056 2 3 tcp 1040 ------- 0 0.0 3.0 27 51
r 0.34224 2 3 tcp 1040 ------- 0 0.0 3.0 25 46
+ 0.34224 3 2 ack 40 ------- 0 3.0 0.0 25 79
- 0.34224 3 2 ack 40 ------- 0 3.0 0.0 25 79
r 0.34352 2 4 tcp 1040 ------- 0 1.0 4.0 4 49
+ 0.34352 4 2 ack 40 ------- 0 4.0 1.0 4 80
- 0.34352 4 2 ack 40 ------- 0 4.0 1.0 4 80
r 0.34424 3 2 ack 40 ------- 0 3.0 0.0 24 76
+ 0.34424 2 0 ack 40 ------- 0 3.0 0.0 24 76
- 0.34424 2 0 ack 40 ------- 0 3.0 0.0 24 76
r 0.34624 2 0 ack 40 ------- 0 3.0 0.0 23 74
+ 0.34624 0 2 tcp 1040 ------- 0 0.0 3.0 43 81
- 0.3472 0 2 tcp 1040 ------- 0 0.0 3.0 30 57
r 0.34888 0 2 tcp 1040 ------- 0 0.0 3.0 28 52
+ 0.34888 2 3 tcp 1040 ------- 0 0.0 3.0 28 52
- 0.34888 2 3 tcp 1040 ------- 0 0.0 3.0 28 52
r 0.35056 2 3 tcp 1040 ------- 0 0.0 3.0 26 47
+ 0.35056 3 2 ack 40 ------- 0 3.0 0.0 26 82
- 0.35056 3 2 ack 40 ------- 0 3.0 0.0 26 82
r 0.35184 2 4 tcp 1040 ------- 0 1.0 4.0 5 53
+ 0.35184 4 2 ack 40 ------- 0 4.0 1.0 5 83
- 0.35184 4 2 ack 40 ------- 0 4.0 1.0 5 83
r 0.35256 3 2 ack 40 ------- 0 3.0 0.0 25 79
+ 0.35256 2 0 ack 40 ------- 0 3.0 0.0 25 79
- 0.35256 2 0 ack 40 ------- 0 3.0 0.0 25 79
r 0.35456 2 0 ack 40 ------- 0 3.0 0.0 24 76
+ 0.35456 0 2 tcp 1040 ------- 0 0.0 3.0 44 84
- 0.35552 0 2 tcp 1040 ------- 0 0.0 3.0 31 59
r 0.3572 0 2 tcp 1040 ------- 0 0.0 3.0 29 56
+ 0.3572 2 3 tcp 1040 ------- 0 0.0 3.0 29 56
- 0.3572 2 3 tcp 1040 ------- 0 0.0 3.0 29 56
r 0.35888 2 3 tcp 1040 ------- 0 0.0 3.0 27 51
+ 0.35888 3 2 ack 40 ------- 0 3.0 0.0 27 85
- 0.35888 3 2 ack 40 ------- 0 3.0 0.0 27 85
r 0.36016 2 4 tcp 1040 ------- 0 1.0 4.0 6 54
+ 0.36016 4 2 ack 40 ------- 0 4.0 1.0 6 86
- 0.36016 4 2 ack 40 ------- 0 4.0 1.0 6 86
r 0.36088 3 2 ack 40 ------- 0 3.0 0.0 26 82
+ 0.36088 2 0 ack 40 ------- 0 3.0 0.0 26 82
- 0.36088 2 0 ack 40 ------- 0 3.0 0.0 26 82
r 0.36288 2 0 ack 40 ------- 0 3.0 0.0 25 79
+ 0.36288 0 2 tcp 1040 ------- 0 0.0 3.0 45 87
- 0.36384 0 2 tcp 1040 ------- 0 0.0 3.0 32 60
r 0.36552 0 2 tcp 1040 ------- 0 0.0 3.0 30 57
+ 0.36552 2 3 tcp 1040 ------- 0 0.0 3.0 30 57
- 0.36552 2 3 tcp 1040 ------- 0 0.0 3.0 30 57
r 0.3672 2 3 tcp 1040 ------- 0 0.0 3.0 28 52
+ 0.3672 3 2 ack 40 ------- 0 3.0 0.0 28 88
- 0.3672 3 2 ack 40 ------- 0 3.0 0.0 28 88
r 0.3692 3 2 ack 40 ------- 0 3.0 0.0 27 85
+ 0.3692 2 0 ack 40 ------- 0 3.0 0.0 27 85
- 0.3692 2 0 ack 40 ------- 0 3.0 0.0 27 85
r 0.3712 2 0 ack 40 ------- 0 3.0 0.0 26 82
+ 0.3712 0 2 tcp 1040 ------- 0 0.0 3.0 46 89
- 0.37216 0 2 tcp 1040 ------- 0 0.0 3.0 33 62
r 0.37384 0 2 tcp 1040 ------- 0 0.0 3.0 31 59
+ 0.37384 2 3 tcp 1040 ------- 0 0.0 3.0 31 59
- 0.37384 2 3 tcp 1040 ------- 0 0.0 3.0 31 59
r 0.37552 2 3 tcp 1040 ------- 0 0.0 3.0 29 56
+ 0.37552 3 2 ack 40 ------- 0 3.0 0.0 29 90
- 0.37552 3 2 ack 40 ------- 0 3.0 0.0 29 90
r 0.37752 3 2 ack 40 ------- 0 3.0 0.0 28 88
+ 0.37752 2 0 ack 40 ------- 0 3.0 0.0 28 88
- 0.37752 2 0 ack 40 ------- 0 3.0 0.0 28 88
r 0.37952 2 0 ack 40 ------- 0 3.0 0.0 27 85
+ 0.37952 0 2 tcp 1040 ------- 0 0.0 3.0 47 91
- 0.38048 0 2 tcp 1040 ------- 0 0.0 3.0 34 63
r 0.38216 0 2 tcp 1040 ------- 0 0.0 3.0 32 60
+ 0.38216 2 3 tcp 1040 ------- 0 0.0 3.0 32 60
- 0.38216 2 3 tcp 1040 ------- 0 0.0 3.0 32 60
r 0.38384 2 3 tcp 1040 ------- 0 0.0 3.0 30 57
+ 0.38384 3 2 ack 40 ------- 0 3.0 0.0 30 92
- 0.38384 3 2 ack 40 ------- 0 3.0 0.0 30 92
r 0.38552 4 2 ack 40 ------- 0 4.0 1.0 3 77
+ 0.38552 2 1 ack 40 ------- 0 4.0 1.0 3 77
- 0.38552 2 1 ack 40 ------- 0 4.0 1.0 3 77
r 0.38584 3 2 ack 40 ------- 0 3.0 0.0 29 90
+ 0.38584 2 0 ack 40 ------- 0 3.0 0.0 29 90
- 0.38584 2 0 ack 40 ------- 0 3.0 0.0 29 90
r 0.38784 2 0 ack 40 ------- 0 3.0 0.0 28 88
+ 0.38784 0 2 tcp 1040 ------- 0 0.0 3.0 48 93
- 0.3888 0 2 tcp 1040 ------- 0 0.0 3.0 35 65
r 0.39048 0 2 tcp 1040 ------- 0 0.0 3.0 33 62
+ 0.39048 2 3 tcp 1040 ------- 0 0.0 3.0 33 62
- 0.39048 2 3 tcp 1040 ------- 0 0.0 3.0 33 62
r 0.39216 2 3 tcp 1040 ------- 0 0.0 3.0 31 59
+ 0.39216 3 2 ack 40 ------- 0 3.0 0.0 31 94
- 0.39216 3 2 ack 40 ------- 0 3.0 0.0 31 94
r 0.39384 4 2 ack 40 ------- 0 4.0 1.0 4 80
+ 0.39384 2 1 ack 40 ------- 0 4.0 1.0 4 80
- 0.39384 2 1 ack 40 ------- 0 4.0 1.0 4 80
r 0.39416 3 2 ack 40 ------- 0 3.0 0.0 30 92
+ 0.39416 2 0 ack 40 ------- 0 3.0 0.0 30 92
- 0.39416 2 0 ack 40 ------- 0 3.0 0.0 30 92
r 0.39584 2 1 ack 40 ------- 0 4.0 1.0 3 77
+ 0.39584 1 2 tcp 1040 ------- 0 1.0 4.0 7 95
- 0.39584 1 2 tcp 1040 ------- 0 1.0 4.0 7 95
+ 0.39584 1 2 tcp 1040 ------- 0 1.0 4.0 8 96
r 0.39616 2 0 ack 40 ------- 0 3.0 0.0 29 90
+ 0.39616 0 2 tcp 1040 ------- 0 0.0 3.0 49 97
- 0.39712 0 2 tcp 1040 ------- 0 0.0 3.0 36 66
r 0.3988 0 2 tcp 1040 ------- 0 0.0 3.0 34 63
+ 0.3988 2 3 tcp 1040 ------- 0 0.0 3.0 34 63
- 0.3988 2 3 tcp 1040 ------- 0 0.0 3.0 34 63
r 0.40048 2 3 tcp 1040 ------- 0 0.0 3.0 32 60
+ 0.40048 3 2 ack 40 ------- 0 3.0 0.0 32 98
- 0.40048 3 2 ack 40 ------- 0 3.0 0.0 32 98
r 0.40216 4 2 ack 40 ------- 0 4.0 1.0 5 83
+ 0.40216 2 1 ack 40 ------- 0 4.0 1.0 5 83
- 0.40216 2 1 ack 40 ------- 0 4.0 1.0 5 83
r 0.40248 3 2 ack 40 ------- 0 3.0 0.0 31 94
+ 0.40248 2 0 ack 40 ------- 0 3.0 0.0 31 94
- 0.40248 2 0 ack 40 ------- 0 3.0 0.0 31 94
r 0.40416 2 1 ack 40 ------- 0 4.0 1.0 4 80
+ 0.40416 1 2 tcp 1040 ------- 0 1.0 4.0 9 99
+ 0.40416 1 2 tcp 1040 ------- 0 1.0 4.0 10 100
- 0.40416 1 2 tcp 1040 ------- 0 1.0 4.0 8 96
r 0.40448 2 0 ack 40 ------- 0 3.0 0.0 30 92
+ 0.40448 0 2 tcp 1040 ------- 0 0.0 3.0 50 101
- 0.40544 0 2 tcp 1040 ------- 0 0.0 3.0 37 68
r 0.40712 0 2 tcp 1040 ------- 0 0.0 3.0 35 65
+ 0.40712 2 3 tcp 1040 ------- 0 0.0 3.0 35 65
- 0.40712 2 3 tcp 1040 ------- 0 0.0 3.0 35 65
r 0.4088 2 3 tcp 1040 ------- 0 0.0 3.0 33 62
+ 0.4088 3 2 ack 40 ------- 0 3.0 0.0 33 102
- 0.4088 3 2 ack 40 ------- 0 3.0 0.0 33 102
r 0.41048 4 2 ack 40 ------- 0 4.0 1.0 6 86
+ 0.41048 2 1 ack 40 ------- 0 4.0 1.0 6 86
- 0.41048 2 1 ack 40 ------- 0 4.0 1.0 6 86
r 0.4108 3 2 ack 40 ------- 0 3.0 0.0 32 98
+ 0.4108 2 0 ack 40 ------- 0 3.0 0.0 32 98
- 0.4108 2 0 ack 40 ------- 0 3.0 0.0 32 98
r 0.41248 2 1 ack 40 ------- 0 4.0 1.0 5 83
+ 0.41248 1 2 tcp 1040 ------- 0 1.0 4.0 11 103
+ 0.41248 1 2 tcp 1040 ------- 0 1.0 4.0 12 104
- 0.41248 1 2 tcp 1040 ------- 0 1.0 4.0 9 99
r 0.4128 2 0 ack 40 ------- 0 3.0 0.0 31 94
+ 0.4128 0 2 tcp 1040 ------- 0 0.0 3.0 51 105
- 0.41376 0 2 tcp 1040 ------- 0 0.0 3.0 38 69
r 0.41416 1 2 tcp 1040 ------- 0 1.0 4.0 7 95
+ 0.41416 2 4 tcp 1040 ------- 0 1.0 4.0 7 95
- 0.41416 2 4 tcp 1040 ------- 0 1.0 4.0 7 95
r 0.41544 0 2 tcp 1040 ------- 0 0.0 3.0 36 66
+ 0.41544 2 3 tcp 1040 ------- 0 0.0 3.0 36 66
- 0.41544 2 3 tcp 1040 ------- 0 0.0 3.0 36 66
r 0.41712 2 3 tcp 1040 ------- 0 0.0 3.0 34 63
+ 0.41712 3 2 ack 40 ------- 0 3.0 0.0 34 106
- 0.41712 3 2 ack 40 ------- 0 3.0 0.0 34 106
r 0.41912 3 2 ack 40 ------- 0 3.0 0.0 33 102
+ 0.41912 2 0 ack 40 ------- 0 3.0 0.0 33 102
- 0.41912 2 0 ack 40 ------- 0 3.0 0.0 33 102
r 0.4208 2 1 ack 40 ------- 0 4.0 1.0 6 86
+ 0.4208 1 2 tcp 1040 ------- 0 1.0 4.0 13 107
+ 0.4208 1 2 tcp 1040 ------- 0 1.0 4.0 14 108
- 0.4208 1 2 tcp 1040 ------- 0 1.0 4.0 10 100
r 0.42112 2 0 ack 40 ------- 0 3.0 0.0 32 98
+ 0.42112 0 2 tcp 1040 ------- 0 0.0 3.0 52 109
- 0.42208 0 2 tcp 1040 ------- 0 0.0 3.0 39 71
r 0.42248 1 2 tcp 1040 ------- 0 1.0 4.0 8 96
+ 0.42248 2 4 tcp 1040 ------- 0 1.0 4.0 8 96
- 0.42248 2 4 tcp 1040 ------- 0 1.0 4.0 8 96
r 0.42376 0 2 tcp 1040 ------- 0 0.0 3.0 37 68
+ 0.42376 2 3 tcp 1040 ------- 0 0.0 3.0 37 68
- 0.42376 2 3 tcp 1040 ------- 0 0.0 3.0 37 68
r 0.42544 2 3 tcp 1040 ------- 0 0.0 3.0 35 65
+ 0.42544 3 2 ack 40 ------- 0 3.0 0.0 35 110
- 0.42544 3 2 ack 40 ------- 0 3.0 0.0 35 110
r 0.42744 3 2 ack 40 ------- 0 3.0 0.0 34 106
+ 0.42744 2 0 ack 40 ------- 0 3.0 0.0 34 106
- 0.42744 2 0 ack 40 ------- 0 3.0 0.0 34 106
- 0.42912 1 2 tcp 1040 ------- 0 1.0 4.0 11 103
r 0.42944 2 0 ack 40 ------- 0 3.0 0.0 33 102
+ 0.42944 0 2 tcp 1040 ------- 0 0.0 3.0 53 111
- 0.4304 0 2 tcp 1040 ------- 0 0.0 3.0 40 73
r 0.4308 1 2 tcp 1040 ------- 0 1.0 4.0 9 99
+ 0.4308 2 4 tcp 1040 ------- 0 1.0 4.0 9 99
- 0.4308 2 4 tcp 1040 ------- 0 1.0 4.0 9 99
r 0.43208 0 2 tcp 1040 ------- 0 0.0 3.0 38 69
+ 0.43208 2 3 tcp 1040 ------- 0 0.0 3.0 38 69
- 0.43208 2 3 tcp 1040 ------- 0 0.0 3.0 38 69
r 0.43376 2 3 tcp 1040 ------- 0 0.0 3.0 36 66
+ 0.43376 3 2 ack 40 ------- 0 3.0 0.0 36 112
- 0.43376 3 2 ack 40 ------- 0 3.0 0.0 36 112
r 0.43576 3 2 ack 40 ------- 0 3.0 0.0 35 110
+ 0.43576 2 0 ack 40 ------- 0 3.0 0.0 35 110
- 0.43576 2 0 ack 40 ------- 0 3.0 0.0 35 110
- 0.43744 1 2 tcp 1040 ------- 0 1.0 4.0 12 104
r 0.43776 2 0 ack 40 ------- 0 3.0 0.0 34 106
+ 0.43776 0 2 tcp 1040 ------- 0 0.0 3.0 54 113
- 0.43872 0 2 tcp 1040 ------- 0 0.0 3.0 41 75
r 0.43912 1 2 tcp 1040 ------- 0 1.0 4.0 10 100
+ 0.43912 2 4 tcp 1040 ------- 0 1.0 4.0 10 100
- 0.43912 2 4 tcp 1040 ------- 0 1.0 4.0 10 100
r 0.4404 0 2 tcp 1040 ------- 0 0.0 3.0 39 71
+ 0.4404 2 3 tcp 1040 ------- 0 0.0 3.0 39 71
- 0.4404 2 3 tcp 1040 ------- 0 0.0 3.0 39 71
r 0.44208 2 3 tcp 1040 ------- 0 0.0 3.0 37 68
+ 0.44208 3 2 ack 40 ------- 0 3.0 0.0 37 114
- 0.44208 3 2 ack 40 ------- 0 3.0 0.0 37 114
r 0.44408 3 2 ack 40 ------- 0 3.0 0.0 36 112
+ 0.44408 2 0 ack 40 ------- 0 3.0 0.0 36 112
- 0.44408 2 0 ack 40 ------- 0 3.0 0.0 36 112
- 0.44576 1 2 tcp 1040 ------- 0 1.0 4.0 13 107
r 0.44608 2 0 ack 40 ------- 0 3.0 0.0 35 110
+ 0.44608 0 2 tcp 1040 ------- 0 0.0 3.0 55 115
- 0.44704 0 2 tcp 1040 ------- 0 0.0 3.0 42 78
r 0.44744 1 2 tcp 1040 ------- 0 1.0 4.0 11 103
+ 0.44744 2 4 tcp 1040 ------- 0 1.0 4.0 11 103
- 0.44744 2 4 tcp 1040 ------- 0 1.0 4.0 11 103
r 0.44872 0 2 tcp 1040 ------- 0 0.0 3.0 40 73
+ 0.44872 2 3 tcp 1040 ------- 0 0.0 3.0 40 73
- 0.44872 2 3 tcp 1040 ------- 0 0.0 3.0 40 73
r 0.4504 2 3 tcp 1040 ------- 0 0.0 3.0 38 69
+ 0.4504 3 2 ack 40 ------- 0 3.0 0.0 38 116
- 0.4504 3 2 ack 40 ------- 0 3.0 0.0 38 116
r 0.4524 3 2 ack 40 ------- 0 3.0 0.0 37 114
+ 0.4524 2 0 ack 40 ------- 0 3.0 0.0 37 114
- 0.4524 2 0 ack 40 ------- 0 3.0 0.0 37 114
- 0.45408 1 2 tcp 1040 ------- 0 1.0 4.0 14 108
r 0.4544 2 0 ack 40 ------- 0 3.0 0.0 36 112
+ 0.4544 0 2 tcp 1040 ------- 0 0.0 3.0 56 117
- 0.45536 0 2 tcp 1040 ------- 0 0.0 3.0 43 81
r 0.45576 1 2 tcp 1040 ------- 0 1.0 4.0 12 104
+ 0.45576 2 4 tcp 1040 ------- 0 1.0 4.0 12 104
- 0.45576 2 4 tcp 1040 ------- 0 1.0 4.0 12 104
r 0.45704 0 2 tcp 1040 ------- 0 0.0 3.0 41 75
+ 0.45704 2 3 tcp 1040 ------- 0 0.0 3.0 41 75
- 0.45704 2 3 tcp 1040 ------- 0 0.0 3.0 41 75
r 0.45872 2 3 tcp 1040 ------- 0 0.0 3.0 39 71
+ 0.45872 3 2 ack 40 ------- 0 3.0 0.0 39 118
- 0.45872 3 2 ack 40 ------- 0 3.0 0.0 39 118
r 0.46072 3 2 ack 40 ------- 0 3.0 0.0 38 116
+ 0.46072 2 0 ack 40 ------- 0 3.0 0.0 38 116
- 0.46072 2 0 ack 40 ------- 0 3.0 0.0 38 116
r 0.46272 2 0 ack 40 ------- 0 3.0 0.0 37 114
+ 0.46272 0 2 tcp 1040 ------- 0 0.0 3.0 57 119
- 0.46368 0 2 tcp 1040 ------- 0 0.0 3.0 44 84
r 0.46408 1 2 tcp 1040 ------- 0 1.0 4.0 13 107
+ 0.46408 2 4 tcp 1040 ------- 0 1.0 4.0 13 107
- 0.46408 2 4 tcp 1040 ------- 0 1.0 4.0 13 107
r 0.46536 0 2 tcp 1040 ------- 0 0.0 3.0 42 78
+ 0.46536 2 3 tcp 1040 ------- 0 0.0 3.0 42 78
- 0.46536 2 3 tcp 1040 ------- 0 0.0 3.0 42 78
r 0.46704 2 3 tcp 1040 ------- 0 0.0 3.0 40 73
+ 0.46704 3 2 ack 40 ------- 0 3.0 0.0 40 120
- 0.46704 3 2 ack 40 ------- 0 3.0 0.0 40 120
r 0.46904 3 2 ack 40 ------- 0 3.0 0.0 39 118
+ 0.46904 2 0 ack 40 ------- 0 3.0 0.0 39 118
- 0.46904 2 0 ack 40 ------- 0 3.0 0.0 39 118
r 0.47104 2 0 ack 40 ------- 0 3.0 0.0 38 116
+ 0.47104 0 2 tcp 1040 ------- 0 0.0 3.0 58 121
- 0.472 0 2 tcp 1040 ------- 0 0.0 3.0 45 87
r 0.4724 1 2 tcp 1040 ------- 0 1.0 4.0 14 108
+ 0.4724 2 4 tcp 1040 ------- 0 1.0 4.0 14 108
- 0.4724 2 4 tcp 1040 ------- 0 1.0 4.0 14 108
r 0.47248 2 4 tcp 1040 ------- 0 1.0 4.0 7 95
+ 0.47248 4 2 ack 40 ------- 0 4.0 1.0 7 122
- 0.47248 4 2 ack 40 ------- 0 4.0 1.0 7 122
r 0.47368 0 2 tcp 1040 ------- 0 0.0 3.0 43 81
+ 0.47368 2 3 tcp 1040 ------- 0 0.0 3.0 43 81
- 0.47368 2 3 tcp 1040 ------- 0 0.0 3.0 43 81
r 0.47536 2 3 tcp 1040 ------- 0 0.0 3.0 41 75
+ 0.47536 3 2 ack 40 ------- 0 3.0 0.0 41 123
- 0.47536 3 2 ack 40 ------- 0 3.0 0.0 41 123
r 0.47736 3 2 ack 40 ------- 0 3.0 0.0 40 120
+ 0.47736 2 0 ack 40 ------- 0 3.0 0.0 40 120
- 0.47736 2 0 ack 40 ------- 0 3.0 0.0 40 120
r 0.47936 2 0 ack 40 ------- 0 3.0 0.0 39 118
+ 0.47936 0 2 tcp 1040 ------- 0 0.0 3.0 59 124
- 0.48032 0 2 tcp 1040 ------- 0 0.0 3.0 46 89
r 0.4808 2 4 tcp 1040 ------- 0 1.0 4.0 8 96
+ 0.4808 4 2 ack 40 ------- 0 4.0 1.0 8 125
- 0.4808 4 2 ack 40 ------- 0 4.0 1.0 8 125